 vasp.5.2.12 11Nov11 complex                                                    
  
 executed on           IFC91_ompi date 2012.09.18  14:29:23
 running on  128 nodes
 distr:  one band on    1 nodes,  128 groups


--------------------------------------------------------------------------------------------------------


 INCAR:
 POTCAR:   PAW C 31May2000                        
 POTCAR:   PAW H 06May1998                        

 ----------------------------------------------------------------------------- 
|                                                                             |
|           W    W    AA    RRRRR   N    N  II  N    N   GGGG   !!!           |
|           W    W   A  A   R    R  NN   N  II  NN   N  G    G  !!!           |
|           W    W  A    A  R    R  N N  N  II  N N  N  G       !!!           |
|           W WW W  AAAAAA  RRRRR   N  N N  II  N  N N  G  GGG   !            |
|           WW  WW  A    A  R   R   N   NN  II  N   NN  G    G                |
|           W    W  A    A  R    R  N    N  II  N    N   GGGG   !!!           |
|                                                                             |
|      For optimal performance we recommend that you set                      |
|        NPAR = approx SQRT( number of cores)                                 |
|      This will greatly improve the performance of VASP for DFT.             |
|      The default NPAR=number of cores might be grossly inefficient          |
|      on modern multi-core architectures or massively parallel machines.     |
|      Unfortunately you need to use the default for hybrid, GW and RPA       |
|      calculations.                                                          |
|                                                                             |
 ----------------------------------------------------------------------------- 

 POTCAR:   PAW C 31May2000                        
   VRHFIN =C: s2p2                                                              
   LEXCH  = CA                                                                  
   EATOM  =   146.6877 eV,   10.7812 Ry                                         
                                                                                
   TITEL  = PAW C 31May2000                                                     
   LULTRA =        F    use ultrasoft PP ?                                      
   IUNSCR =        0    unscreen: 0-lin 1-nonlin 2-no                           
   RPACOR =     .000    partial core radius                                     
   POMASS =   12.011; ZVAL   =    4.000    mass and valenz                      
   RCORE  =    1.500    outmost cutoff radius                                   
   RWIGS  =    1.630; RWIGS  =     .863    wigner-seitz radius (au A)           
   ENMAX  =  400.000; ENMIN  =  300.000 eV                                      
   ICORE  =        2    local potential                                         
   LCOR   =        T    correct aug charges                                     
   LPAW   =        T    paw PP                                                  
   EAUG   =  644.873                                                            
   DEXC   =     .000                                                            
   RMAX   =    2.266    core radius for proj-oper                               
   RAUG   =    1.300    factor for augmentation sphere                          
   RDEP   =    1.501    radius for radial grids                                 
   RDEPT  =    1.300    core radius for aug-charge                              
   QCUT   =   -5.516; QGAM   =   11.032    optimization parameters              
                                                                                
   Description                                                                  
     l     E      TYP  RCUT    TYP  RCUT                                        
     0   .000     23  1.200                                                     
     0   .000     23  1.200                                                     
     1   .000     23  1.500                                                     
     1  2.500     23  1.500                                                     
     2   .000      7  1.500                                                     
  local pseudopotential read in
  atomic valenz-charges read in
  non local Contribution for L=           0  read in
    real space projection operators read in
  non local Contribution for L=           0  read in
    real space projection operators read in
  non local Contribution for L=           1  read in
    real space projection operators read in
  non local Contribution for L=           1  read in
    real space projection operators read in
    PAW grid and wavefunctions read in
 
   number of l-projection  operators is LMAX  =           4
   number of lm-projection operators is LMMAX =           8
 
 POTCAR:   PAW H 06May1998                        
   VRHFIN =H: ultrasoft test                                                    
   LEXCH  = CA                                                                  
   EATOM  =    12.1334 eV,     .8918 Ry                                         
                                                                                
   TITEL  = PAW H 06May1998                                                     
   LULTRA =        F    use ultrasoft PP ?                                      
   IUNSCR =        0    unscreen: 0-lin 1-nonlin 2-no                           
   RPACOR =     .000    partial core radius                                     
   POMASS =    1.000; ZVAL   =    1.000    mass and valenz                      
   RCORE  =    1.100    outmost cutoff radius                                   
   RWIGS  =     .700; RWIGS  =     .370    wigner-seitz radius (au A)           
   ENMAX  =  250.000; ENMIN  =  200.000 eV                                      
   RCLOC  =     .701    cutoff for local pot                                    
   LCOR   =        T    correct aug charges                                     
   LPAW   =        T    paw PP                                                  
   EAUG   =  400.000                                                            
   RMAX   =    2.177    core radius for proj-oper                               
   RAUG   =    1.200    factor for augmentation sphere                          
   RDEP   =    1.112    core radius for depl-charge                             
   QCUT   =   -5.742; QGAM   =   11.483    optimization parameters              
                                                                                
   Description                                                                  
     l     E      TYP  RCUT    TYP  RCUT                                        
     0   .000     23  1.100                                                     
     0   .500     23  1.100                                                     
     1  -.300     23  1.100                                                     
  local pseudopotential read in
  atomic valenz-charges read in
  non local Contribution for L=           0  read in
    real space projection operators read in
  non local Contribution for L=           0  read in
    real space projection operators read in
  non local Contribution for L=           1  read in
    real space projection operators read in
    PAW grid and wavefunctions read in
 
   number of l-projection  operators is LMAX  =           3
   number of lm-projection operators is LMMAX =           5
 

 ----------------------------------------------------------------------------- 
|                                                                             |
|  ADVICE TO THIS USER RUNNING 'VASP/VAMP'   (HEAR YOUR MASTER'S VOICE ...):  |
|                                                                             |
|      You have a (more or less) 'large supercell' and for larger cells       |
|      it might be more efficient to use real space projection opertators     |
|      So try LREAL= Auto  in the INCAR   file.                               |
|      Mind: At the moment your POTCAR file does not contain real space       |
|       projectors, and has to be modified,  BUT if you                       |
|      want to do an extremely  accurate calculation you might also keep the  |
|      reciprocal projection scheme          (i.e. LREAL=.FALSE.)             |
|                                                                             |
 ----------------------------------------------------------------------------- 

 PAW C 31May2000                        :
 energy of atom  1       EATOM= -146.6877
 kinetic energy error for atom=    0.0075 (will be added to EATOM!!)
 PAW H 06May1998                        :
 energy of atom  2       EATOM=  -12.1334
 kinetic energy error for atom=    0.0018 (will be added to EATOM!!)
 
 
 POSCAR: GNR Zigzag Hydrogenated 15              
  positions in direct lattice
  velocities in cartesian coordinates
 exchange correlation table for  LEXCH =        2
   RHO(1)=    0.500       N(1)  =     2000
   RHO(2)=  100.500       N(2)  =     4000
 


--------------------------------------------------------------------------------------------------------


 ion  position               nearest neighbor table
   1  0.000  0.072  0.000-  33 1.10   2 1.40   2 1.40
   2  0.500  0.089  0.000-   1 1.40   1 1.40   3 1.43
   3  0.500  0.125  0.000-   4 1.42   4 1.42   2 1.43
   4  0.000  0.143  0.000-   3 1.42   3 1.42   5 1.42
   5  0.000  0.178  0.000-   6 1.42   6 1.42   4 1.42
   6  0.500  0.196  0.000-   5 1.42   5 1.42   7 1.42
   7  0.500  0.232  0.000-   6 1.42   8 1.42   8 1.42
   8  0.000  0.249  0.000-   9 1.42   7 1.42   7 1.42
   9  0.000  0.285  0.000-   8 1.42  10 1.42  10 1.42
  10  0.500  0.303  0.000-  11 1.42   9 1.42   9 1.42
  11  0.500  0.338  0.000-  12 1.42  12 1.42  10 1.42
  12  0.000  0.356  0.000-  11 1.42  11 1.42  13 1.42
  13  0.000  0.392  0.000-  14 1.42  14 1.42  12 1.42
  14  0.500  0.410  0.000-  13 1.42  13 1.42  15 1.42
  15  0.500  0.445  0.000-  16 1.42  16 1.42  14 1.42
  16  0.000  0.463  0.000-  15 1.42  15 1.42  17 1.42
  17  0.000  0.499  0.000-  16 1.42  18 1.42  18 1.42
  18  0.500  0.517  0.000-  19 1.42  17 1.42  17 1.42
  19  0.500  0.552  0.000-  18 1.42  20 1.42  20 1.42
  20  0.000  0.570  0.000-  21 1.42  19 1.42  19 1.42
  21  0.000  0.606  0.000-  22 1.42  22 1.42  20 1.42
  22  0.500  0.624  0.000-  21 1.42  21 1.42  23 1.42
  23  0.500  0.659  0.000-  24 1.42  24 1.42  22 1.42
  24  0.000  0.677  0.000-  23 1.42  23 1.42  25 1.42
  25  0.000  0.713  0.000-  26 1.42  26 1.42  24 1.42
  26  0.500  0.730  0.000-  25 1.42  25 1.42  27 1.42
  27  0.500  0.766  0.000-  26 1.42  28 1.42  28 1.42
  28  0.000  0.784  0.000-  29 1.42  27 1.42  27 1.42
  29  0.000  0.819  0.000-  28 1.42  30 1.42  30 1.42
  30  0.500  0.837  0.000-  29 1.42  29 1.42  31 1.43
  31  0.500  0.873  0.000-  32 1.40  32 1.40  30 1.43
  32  0.000  0.890  0.000-  34 1.10  31 1.40  31 1.40
  33  0.000  0.044  0.000-   1 1.10
  34  0.000  0.918  0.000-  32 1.10
 
  LATTYP: Found a simple orthorhombic cell.
 ALAT       =     2.4610000000
 B/A-ratio  =     2.0316944332
 C/A-ratio  =    16.2046961751
  
  Lattice vectors:
  
 A1 = (  -2.4610000000,   0.0000000000,   0.0000000000)
 A2 = (   0.0000000000,   0.0000000000,  -5.0000000000)
 A3 = (   0.0000000000, -39.8797572869,   0.0000000000)
 Subroutine PRICEL returns:
 Original cell was already a primitive cell.
 

Analysis of symmetry for initial positions (statically):

 Routine SETGRP: Setting up the symmetry group for a 
 simple orthorhombic supercell.


 Subroutine GETGRP returns: Found  8 space group operations
 (whereof  4 operations were pure point group operations)
 out of a pool of  8 trial point group operations.


The static configuration has the point symmetry C_2v.
 The point group associated with its full space group is D_2h.

Analysis of symmetry for dynamics (positions and initial velocities):

 Subroutine DYNSYM returns: Found  8 space group operations
 (whereof  4 operations were pure point group operations)
 out of a pool of  8 trial space group operations
 (whereof  4 operations were pure point group operations)
 and found also     1 'primitive' translations


The dynamic configuration has the point symmetry C_2v.
 The point group associated with its full space group is D_2h.

Analysis of constrained symmetry for selective dynamics:

 Subroutine DYNSYM returns: Found  8 space group operations
 (whereof  4 operations were pure point group operations)
 out of a pool of  8 trial space group operations
 (whereof  4 operations were pure point group operations)
 and found also     1 'primitive' translations


The constrained configuration has the point symmetry C_2v.
 The point group associated with its full space group is D_2h.
 
 
 KPOINTS: Automatic                               

Automatic generation of k-mesh.
 
 Subroutine IBZKPT returns following result:
 ===========================================
 
 Found     10 irreducible k-points:
 
 Following reciprocal coordinates:
            Coordinates               Weight
  0.000000  0.000000  0.000000      1.000000
  0.052632  0.000000  0.000000      2.000000
  0.105263  0.000000  0.000000      2.000000
  0.157895  0.000000  0.000000      2.000000
  0.210526  0.000000  0.000000      2.000000
  0.263158  0.000000  0.000000      2.000000
  0.315789  0.000000  0.000000      2.000000
  0.368421  0.000000  0.000000      2.000000
  0.421053  0.000000  0.000000      2.000000
  0.473684  0.000000  0.000000      2.000000
 
 Following cartesian coordinates:
            Coordinates               Weight
  0.000000  0.000000  0.000000      1.000000
  0.021386  0.000000  0.000000      2.000000
  0.042773  0.000000  0.000000      2.000000
  0.064159  0.000000  0.000000      2.000000
  0.085545  0.000000  0.000000      2.000000
  0.106931  0.000000  0.000000      2.000000
  0.128318  0.000000  0.000000      2.000000
  0.149704  0.000000  0.000000      2.000000
  0.171090  0.000000  0.000000      2.000000
  0.192476  0.000000  0.000000      2.000000
 
 
 Subroutine IBZKPT_HF returns following result:
 ==============================================
 
 Found     19 k-points in 1st BZ
 the following     19 k-points will be used (e.g. in the exchange kernel)
 Following reciprocal coordinates:   # in IRBZ
  0.000000  0.000000  0.000000       1 t-inv F
  0.052632  0.000000  0.000000       2 t-inv F
  0.105263  0.000000  0.000000       3 t-inv F
  0.157895  0.000000  0.000000       4 t-inv F
  0.210526  0.000000  0.000000       5 t-inv F
  0.263158  0.000000  0.000000       6 t-inv F
  0.315789  0.000000  0.000000       7 t-inv F
  0.368421  0.000000  0.000000       8 t-inv F
  0.421053  0.000000  0.000000       9 t-inv F
  0.473684  0.000000  0.000000      10 t-inv F
 -0.052632  0.000000  0.000000       2 t-inv F
 -0.105263  0.000000  0.000000       3 t-inv F
 -0.157895  0.000000  0.000000       4 t-inv F
 -0.210526  0.000000  0.000000       5 t-inv F
 -0.263158  0.000000  0.000000       6 t-inv F
 -0.315789  0.000000  0.000000       7 t-inv F
 -0.368421  0.000000  0.000000       8 t-inv F
 -0.421053  0.000000  0.000000       9 t-inv F
 -0.473684  0.000000  0.000000      10 t-inv F


--------------------------------------------------------------------------------------------------------




 Dimension of arrays:
   k-points           NKPTS =     10   k-points in BZ     NKDIM =     10   number of bands    NBANDS=    128
   number of dos      NEDOS =    301   number of ions     NIONS =     34
   non local maximal  LDIM  =      4   non local SUM 2l+1 LMDIM =      8
   total plane-waves  NPLWV = 190512
   max r-space proj   IRMAX =      1   max aug-charges    IRDMAX=   2311
   dimension x,y,z NGX =    18 NGY =  294 NGZ =   36
   dimension x,y,z NGXF=    28 NGYF=  448 NGZF=   56
   support grid    NGXF=    28 NGYF=  448 NGZF=   56
   ions per type =              32   2
 NGX,Y,Z   is equivalent  to a cutoff of  12.16, 12.26, 11.97 a.u.
 NGXF,Y,Z  is equivalent  to a cutoff of  18.91, 18.68, 18.62 a.u.


 I would recommend the setting:
   dimension x,y,z NGX =    18 NGY =  291 NGZ =   36
 SYSTEM =  Graphene                                
 POSCAR =  GNR Zigzag Hydrogenated 15              

 Startparameter for this run:
   NWRITE =      2    write-flag & timer
   PREC   = high      normal or accurate (medium, high low for compatibility)
   ISTART =      1    job   : 0-new  1-cont  2-samecut
   ICHARG =      0    charge: 1-file 2-atom 10-const
   ISPIN  =      1    spin polarized calculation?
   LNONCOLLINEAR =      F non collinear calculations
   LSORBIT =      F    spin-orbit coupling
   INIWAV =      1    electr: 0-lowe 1-rand  2-diag
   LASPH  =      F    aspherical Exc in radial PAW
   METAGGA=      F    non-selfconsistent MetaGGA calc.

 Electronic Relaxation 1
   ENCUT  =  500.0 eV  36.75 Ry    6.06 a.u.   4.49 72.71  9.12*2*pi/ulx,y,z
   ENINI  =  500.0     initial cutoff
   ENAUG  =  644.9 eV  augmentation charge cutoff
   NELM   =     60;   NELMIN=  2; NELMDL=  0     # of ELM steps 
   EDIFF  = 0.1E-03   stopping-criterion for ELM
   LREAL  =      F    real-space projection
   NLSPLINE    = F    spline interpolate recip. space projectors
   LCOMPAT=      F    compatible to vasp.4.4
   GGA_COMPAT  = T    GGA compatible to vasp.4.4-vasp.4.6
   LMAXPAW     = -100 max onsite density
   LMAXMIX     =    2 max onsite mixed and CHGCAR
   VOSKOWN=      0    Vosko Wilk Nusair interpolation
   ROPT   =    0.00000   0.00000
 Ionic relaxation
   EDIFFG = 0.1E-02   stopping-criterion for IOM
   NSW    =      0    number of steps for IOM
   NBLOCK =      1;   KBLOCK =      1    inner block; outer block 
   IBRION =     -1    ionic relax: 0-MD 1-quasi-New 2-CG
   NFREE  =      0    steps in history (QN), initial steepest desc. (CG)
   ISIF   =      2    stress and relaxation
   IWAVPR =     10    prediction:  0-non 1-charg 2-wave 3-comb
   ISYM   =      2    0-nonsym 1-usesym 2-fastsym
   LCORR  =      T    Harris-Foulkes like correction to forces

   POTIM  = 0.5000    time-step for ionic-motion
   TEIN   =    0.0    initial temperature
   TEBEG  =    0.0;   TEEND  =   0.0 temperature during run
   SMASS  =  -3.00    Nose mass-parameter (am)
   estimated Nose-frequenzy (Omega)   =  0.10E-29 period in steps =****** mass=  -0.138E-27a.u.
   SCALEE = 1.0000    scale energy and forces
   NPACO  =    256;   APACO  = 16.0  distance and # of slots for P.C.
   PSTRESS=    0.0 pullay stress

  Mass of Ions in am
   POMASS =  12.01  1.00
  Ionic Valenz
   ZVAL   =   4.00  1.00
  Atomic Wigner-Seitz radii
   RWIGS  =  -1.00 -1.00
  virtual crystal weights 
   VCA    =   1.00  1.00
   NELECT =     130.0000    total number of electrons
   NUPDOWN=      -1.0000    fix difference up-down

 DOS related values:
   EMIN   =  10.00;   EMAX   =-10.00  energy-range for DOS
   EFERMI =   0.00
   ISMEAR =     0;   SIGMA  =   0.05  broadening in eV -4-tet -1-fermi 0-gaus

 Electronic relaxation 2 (details)
   IALGO  =     38    algorithm
   LDIAG  =      T    sub-space diagonalisation (order eigenvalues)
   LSUBROT=      T    optimize rotation matrix (better conditioning)
   TURBO    =      0    0=normal 1=particle mesh
   IRESTART =      0    0=no restart 2=restart with 2 vectors
   NREBOOT  =      0    no. of reboots
   NMIN     =      0    reboot dimension
   EREF     =   0.00    reference energy to select bands
   IMIX   =      4    mixing-type and parameters
     AMIX     =   0.40;   BMIX     =  1.00
     AMIX_MAG =   1.60;   BMIX_MAG =  1.00
     AMIN     =   0.10
     WC   =   100.;   INIMIX=   1;  MIXPRE=   1

 Intra band minimization:
   WEIMIN = 0.0000     energy-eigenvalue tresh-hold
   EBREAK =  0.20E-06  absolut break condition
   DEPER  =   0.30     relativ break condition  

   TIME   =   0.40     timestep for ELM

  volume/ion in A,a.u.               =      14.43        97.40
  Fermi-wavevector in a.u.,A,eV,Ry     =   1.051424  1.986903 15.041139  1.105493
  Thomas-Fermi vector in A             =   2.186467
 
 Write flags
   LWAVE  =      T    write WAVECAR
   LCHARG =      T    write CHGCAR
   LVTOT  =      F    write LOCPOT, total local potential
   LVHAR  =      F    write LOCPOT, Hartree potential only
   LELF   =      F    write electronic localiz. function (ELF)
   LORBIT =     11    0 simple, 1 ext, 2 COOP (PROOUT)


 Dipole corrections
   LMONO  =      F    monopole corrections only (constant potential shift)
   LDIPOL =      F    correct potential (dipole corrections)
   IDIPOL =      0    1-x, 2-y, 3-z, 4-all directions 
   EPSILON=  1.0000000 bulk dielectric constant

 Exchange correlation treatment:
   GGA     =    --    GGA type
   LEXCH   =     2    internal setting for exchange type
   VOSKOWN=      0    Vosko Wilk Nusair interpolation
   LHFCALC =     F    Hartree Fock is set to
   LHFONE  =     F    Hartree Fock one center treatment
   AEXX    =    0.0000 exact exchange contribution

 Linear response parameters
   LEPSILON=     F    determine dielectric tensor
   LRPA    =     F    only Hartree local field effects (RPA)
   LNABLA  =     F    use nabla operator in PAW spheres
   LVEL    =     F    velocity operator in full k-point grid
   LINTERFAST=   F  fast interpolation
   KINTER  =     0    interpolate to denser k-point grid
   CSHIFT  =0.1000    complex shift for real part using Kramers Kronig
   OMEGAMAX=  -1.0    maximum frequency
   RTIME   =    0.100 relaxation time in fs

 Orbital magnetization related:
   ORBITALMAG=     F  switch on orbital magnetization
   LCHIMAG   =     F  perturbation theory with respect to B field
   DQ        =  0.001000  dq finite difference perturbation B field

 PEAD related settings:
   LPEAD      =     T    switch on PEAD
   IPEAD      =     4    finite difference order for dpsi/dk
   LCALCPOL   =     F    calculate macroscopic polarization
   LCALCEPS   =     F    calculate dielectric tensor
   EFIELD_PEAD=    0.0000    0.0000    0.0000
   SKIP_EDOTP =     F
   LRPA       =     F
   SKIP_SCF   =     F


--------------------------------------------------------------------------------------------------------


 Static calculation
 charge density and potential will be updated during run
 non-spin polarized calculation
 Variant of blocked Davidson
 Davidson routine will perform the subspace rotation
 perform sub-space diagonalisation
    after iterative eigenvector-optimisation
 modified Broyden-mixing scheme, WC =      100.0
 initial mixing is a Kerker type mixing with AMIX =  0.4000 and BMIX =      1.0000
 Hartree-type preconditioning will be used
 using additional bands           63
 reciprocal scheme for non local part
 calculate Harris-corrections to forces 
   (improved forces if not selfconsistent)
 use of overlap-Matrix (Vanderbilt PP)
 Gauss-broadening in eV      SIGMA  =   0.05


--------------------------------------------------------------------------------------------------------


  energy-cutoff  :      500.00
  volume of cell :      490.72
      direct lattice vectors                 reciprocal lattice vectors
     2.461000000  0.000000000  0.000000000     0.406338887  0.000000000  0.000000000
     0.000000000 39.879757287  0.000000000     0.000000000  0.025075378  0.000000000
     0.000000000  0.000000000  5.000000000     0.000000000  0.000000000  0.200000000

  length of vectors
     2.461000000 39.879757287  5.000000000     0.406338887  0.025075378  0.200000000


 
 old parameters found on file WAVECAR:
  energy-cutoff  :      500.00
  volume of cell :      490.72
      direct lattice vectors                 reciprocal lattice vectors
     2.461000000  0.000000000  0.000000000     0.406338887  0.000000000  0.000000000
     0.000000000 39.879757287  0.000000000     0.000000000  0.025075378  0.000000000
     0.000000000  0.000000000  5.000000000     0.000000000  0.000000000  0.200000000

  length of vectors

 
 k-points in units of 2pi/SCALE and weight: Automatic                               
   0.00000000  0.00000000  0.00000000       0.053
   0.02138626  0.00000000  0.00000000       0.105
   0.04277251  0.00000000  0.00000000       0.105
   0.06415877  0.00000000  0.00000000       0.105
   0.08554503  0.00000000  0.00000000       0.105
   0.10693129  0.00000000  0.00000000       0.105
   0.12831754  0.00000000  0.00000000       0.105
   0.14970380  0.00000000  0.00000000       0.105
   0.17109006  0.00000000  0.00000000       0.105
   0.19247631  0.00000000  0.00000000       0.105
 
 k-points in reciprocal lattice and weights: Automatic                               
   0.00000000  0.00000000  0.00000000       0.053
   0.05263158  0.00000000  0.00000000       0.105
   0.10526316  0.00000000  0.00000000       0.105
   0.15789474  0.00000000  0.00000000       0.105
   0.21052632  0.00000000  0.00000000       0.105
   0.26315789  0.00000000  0.00000000       0.105
   0.31578947  0.00000000  0.00000000       0.105
   0.36842105  0.00000000  0.00000000       0.105
   0.42105263  0.00000000  0.00000000       0.105
   0.47368421  0.00000000  0.00000000       0.105
 
 position of ions in fractional coordinates (direct lattice) 
   0.00000000  0.07200835  0.00000000
   0.50000000  0.08879078  0.00000000
   0.50000000  0.12470002  0.00000000
   0.00000000  0.14251431  0.00000000
   0.00000000  0.17814289  0.00000000
   0.50000000  0.19595717  0.00000000
   0.50000000  0.23158575  0.00000000
   0.00000000  0.24940004  0.00000000
   0.00000000  0.28502862  0.00000000
   0.50000000  0.30284291  0.00000000
   0.50000000  0.33847148  0.00000000
   0.00000000  0.35628577  0.00000000
   0.00000000  0.39191435  0.00000000
   0.50000000  0.40972864  0.00000000
   0.50000000  0.44535722  0.00000000
   0.00000000  0.46317150  0.00000000
   0.00000000  0.49880008  0.00000000
   0.50000000  0.51661437  0.00000000
   0.50000000  0.55224295  0.00000000
   0.00000000  0.57005724  0.00000000
   0.00000000  0.60568581  0.00000000
   0.50000000  0.62350010  0.00000000
   0.50000000  0.65912868  0.00000000
   0.00000000  0.67694297  0.00000000
   0.00000000  0.71257154  0.00000000
   0.50000000  0.73038583  0.00000000
   0.50000000  0.76601441  0.00000000
   0.00000000  0.78382870  0.00000000
   0.00000000  0.81945728  0.00000000
   0.50000000  0.83727156  0.00000000
   0.50000000  0.87318080  0.00000000
   0.00000000  0.88996323  0.00000000
   0.00000000  0.04441989  0.00000000
   0.00000000  0.91755169  0.00000000
 
 position of ions in cartesian coordinates  (Angst):
   0.00000000  2.87167571  0.00000000
   1.23050000  3.54095486  0.00000000
   1.23050000  4.97300654  0.00000000
   0.00000000  5.68343605  0.00000000
   0.00000000  7.10429506  0.00000000
   1.23050000  7.81472457  0.00000000
   1.23050000  9.23558358  0.00000000
   0.00000000  9.94601309  0.00000000
   0.00000000 11.36687210  0.00000000
   1.23050000 12.07730161  0.00000000
   1.23050000 13.49816062  0.00000000
   0.00000000 14.20859012  0.00000000
   0.00000000 15.62944914  0.00000000
   1.23050000 16.33987864  0.00000000
   1.23050000 17.76073766  0.00000000
   0.00000000 18.47116716  0.00000000
   0.00000000 19.89202617  0.00000000
   1.23050000 20.60245568  0.00000000
   1.23050000 22.02331469  0.00000000
   0.00000000 22.73374420  0.00000000
   0.00000000 24.15460321  0.00000000
   1.23050000 24.86503272  0.00000000
   1.23050000 26.28589173  0.00000000
   0.00000000 26.99632124  0.00000000
   0.00000000 28.41718025  0.00000000
   1.23050000 29.12760976  0.00000000
   1.23050000 30.54846877  0.00000000
   0.00000000 31.25889827  0.00000000
   0.00000000 32.67975729  0.00000000
   1.23050000 33.39018679  0.00000000
   1.23050000 34.82223847  0.00000000
   0.00000000 35.49151763  0.00000000
   0.00000000  1.77145452  0.00000000
   0.00000000 36.59173882  0.00000000
 


--------------------------------------------------------------------------------------------------------


 k-point  1 :  0.00000.00000.0000  plane waves:   12511
 k-point  2 :  0.05260.00000.0000  plane waves:   12493
 k-point  3 :  0.10530.00000.0000  plane waves:   12489
 k-point  4 :  0.15790.00000.0000  plane waves:   12471
 k-point  5 :  0.21050.00000.0000  plane waves:   12475
 k-point  6 :  0.26320.00000.0000  plane waves:   12455
 k-point  7 :  0.31580.00000.0000  plane waves:   12461
 k-point  8 :  0.36840.00000.0000  plane waves:   12407
 k-point  9 :  0.42110.00000.0000  plane waves:   12391
 k-point 10 :  0.47370.00000.0000  plane waves:   12331

 maximum and minimum number of plane-waves per node :     12511    12331

 maximum number of plane-waves:     12511
 maximum index in each direction: 
   IXMAX=    4   IYMAX=   72   IZMAX=    9
   IXMIN=   -4   IYMIN=  -72   IZMIN=   -9

 NGX is ok and might be reduce to  18
 NGY is ok and might be reduce to 290
 WARNING: aliasing errors must be expected set NGZ to  38 to avoid them
 aliasing errors are usually negligible using standard VASP settings
 and one can safely disregard these warnings

 serial   3D FFT for wavefunctions
 parallel 3D FFT for charge:
    minimum data exchange during FFTs selected (reduces bandwidth)


 total amount of memory used by VASP on root node    66585. kBytes
========================================================================

   base      :      30000. kBytes
   nonl-proj :      22880. kBytes
   fftplans  :       3029. kBytes
   grid      :       8504. kBytes
   one-center:        104. kBytes
   wavefun   :       2068. kBytes
 
 Broyden mixing: mesh for mixing (old mesh)
   NGX =  9   NGY =145   NGZ = 19
  (NGX  = 28   NGY  =448   NGZ  = 56)
  gives a total of  24795 points

 charge density for first step will be calculated from the start-wavefunctions


--------------------------------------------------------------------------------------------------------


 Maximum index for augmentation-charges          196 (set IRDMAX)


--------------------------------------------------------------------------------------------------------


 initial charge from wavefunction
 First call to EWALD:  gamma=   0.225
 Maximum number of real-space cells 8x 1x 4
 Maximum number of reciprocal cells 1x12x 2

    FEWALD:  cpu time    0.02: real time    0.02


----------------------------------------- Iteration    1(   1)  ---------------------------------------


    POTLOK:  cpu time    0.05: real time    0.05
    SETDIJ:  cpu time    0.00: real time    0.00
     EDDAV:  cpu time   23.43: real time   23.53
       DOS:  cpu time    0.00: real time    0.00
    CHARGE:  cpu time    0.24: real time    0.24
    MIXING:  cpu time    0.00: real time    0.00
    --------------------------------------------
      LOOP:  cpu time   23.73: real time   23.84

 eigenvalue-minimisations  :  3200
 total energy-change (2. order) :-0.3272518E+03  (-0.2614965E-06)
 number of electron     129.9999952 magnetization 
 augmentation part        3.6303669 magnetization 

 Broyden mixing:
  rms(total) = 0.92139E-04    rms(broyden)= 0.92080E-04
  rms(prec ) = 0.12319E-03
  weight for this iteration     100.00

 Free energy of the ion-electron system (eV)
  ---------------------------------------------------
  alpha Z        PSCENC =       161.85382924
  Ewald energy   TEWEN  =      5924.27011888
  -1/2 Hartree   DENC   =    -10526.05958987
  -exchange  EXHF       =         0.00000000
  -V(xc)+E(xc)   XCENC  =       470.00132147
  PAW double counting   =      2257.84627577    -2299.30909828
  entropy T*S    EENTRO =        -0.01482363
  eigenvalues    EBANDS =     -1033.87085407
  atomic energy  EATOM  =      4718.03098087
  ---------------------------------------------------
  free energy    TOTEN  =      -327.25183960 eV

  energy without entropy =     -327.23701598  energy(sigma->0) =     -327.24442779


--------------------------------------------------------------------------------------------------------




----------------------------------------- Iteration    1(   2)  ---------------------------------------


    POTLOK:  cpu time    0.05: real time    0.05
    SETDIJ:  cpu time    0.00: real time    0.00
     EDDAV:  cpu time   12.69: real time   12.69
       DOS:  cpu time    0.00: real time    0.00
    --------------------------------------------
      LOOP:  cpu time   12.74: real time   12.75

 eigenvalue-minimisations  :  2048
 total energy-change (2. order) : 0.6872597E-07  (-0.1386368E-06)
 number of electron     129.9999952 magnetization 
 augmentation part        3.6303669 magnetization 

 Free energy of the ion-electron system (eV)
  ---------------------------------------------------
  alpha Z        PSCENC =       161.85382924
  Ewald energy   TEWEN  =      5924.27011888
  -1/2 Hartree   DENC   =    -10526.05280601
  -exchange  EXHF       =         0.00000000
  -V(xc)+E(xc)   XCENC  =       470.00135172
  PAW double counting   =      2257.84776414    -2299.31059211
  entropy T*S    EENTRO =        -0.01483374
  eigenvalues    EBANDS =     -1033.87765253
  atomic energy  EATOM  =      4718.03098087
  ---------------------------------------------------
  free energy    TOTEN  =      -327.25183953 eV

  energy without entropy =     -327.23700579  energy(sigma->0) =     -327.24442266


--------------------------------------------------------------------------------------------------------




 average (electrostatic) potential at core
  the test charge radii are     0.6991  0.5201
  (the norm of the test charge is              1.0000)
       1 -58.0400       2 -58.3277       3 -58.4250       4 -58.4394       5 -58.4898
       6 -58.4894       7 -58.5114       8 -58.5080       9 -58.5186      10 -58.5152
      11 -58.5202      12 -58.5179      13 -58.5202      14 -58.5189      15 -58.5198
      16 -58.5193      17 -58.5193      18 -58.5198      19 -58.5189      20 -58.5202
      21 -58.5179      22 -58.5202      23 -58.5152      24 -58.5186      25 -58.5080
      26 -58.5114      27 -58.4895      28 -58.4898      29 -58.4394      30 -58.4251
      31 -58.3277      32 -58.0400      33 -36.6893      34 -36.6893
 
 
 
 E-fermi :   1.0616     XC(G=0):  -7.2369     alpha+bet : -6.7776


 k-point   1 :       0.0000    0.0000    0.0000
  band No.  band energies     occupation 
      1     -18.3090      2.00000
      2     -18.2313      2.00000
      3     -18.1107      2.00000
      4     -17.9508      2.00000
      5     -17.7517      2.00000
      6     -17.5131      2.00000
      7     -17.2348      2.00000
      8     -16.9165      2.00000
      9     -16.5580      2.00000
     10     -16.1594      2.00000
     11     -15.7217      2.00000
     12     -15.2467      2.00000
     13     -14.7380      2.00000
     14     -14.2041      2.00000
     15     -13.6688      2.00000
     16     -13.2145      2.00000
     17     -11.9231      2.00000
     18     -11.3751      2.00000
     19     -10.7230      2.00000
     20     -10.0246      2.00000
     21      -9.2983      2.00000
     22      -8.5521      2.00000
     23      -7.7932      2.00000
     24      -7.0262      2.00000
     25      -6.5893      2.00000
     26      -6.4989      2.00000
     27      -6.3579      2.00000
     28      -6.2615      2.00000
     29      -6.1705      2.00000
     30      -5.9374      2.00000
     31      -5.6592      2.00000
     32      -5.5065      2.00000
     33      -5.3709      2.00000
     34      -5.3366      2.00000
     35      -5.2966      2.00000
     36      -5.1839      2.00000
     37      -5.0383      2.00000
     38      -4.9708      2.00000
     39      -4.8608      2.00000
     40      -4.7802      2.00000
     41      -4.6516      2.00000
     42      -4.5634      2.00000
     43      -4.4112      2.00000
     44      -4.1413      2.00000
     45      -4.1177      2.00000
     46      -4.0937      2.00000
     47      -3.8461      2.00000
     48      -3.6392      2.00000
     49      -3.5325      2.00000
     50      -3.4763      2.00000
     51      -3.2103      2.00000
     52      -3.1369      2.00000
     53      -2.9385      2.00000
     54      -2.8928      2.00000
     55      -2.6271      2.00000
     56      -2.5969      2.00000
     57      -2.5159      2.00000
     58      -2.3427      2.00000
     59      -2.2150      2.00000
     60      -2.1523      2.00000
     61      -2.1379      2.00000
     62      -2.0556      2.00000
     63      -2.0414      2.00000
     64      -1.7182      2.00000
     65      -1.4332      2.00000
     66       2.8386      0.00000
     67       3.2336      0.00000
     68       3.6711      0.00000
     69       3.7095      0.00000
     70       3.7950      0.00000
     71       3.7962      0.00000
     72       3.9648      0.00000
     73       4.1314      0.00000
     74       4.4192      0.00000
     75       4.4685      0.00000
     76       4.6171      0.00000
     77       5.0617      0.00000
     78       5.1699      0.00000
     79       5.1987      0.00000
     80       5.7444      0.00000
     81       5.8933      0.00000
     82       5.9760      0.00000
     83       6.5507      0.00000
     84       6.7380      0.00000
     85       6.9065      0.00000
     86       7.5401      0.00000
     87       7.5985      0.00000
     88       8.0631      0.00000
     89       8.2057      0.00000
     90       8.5232      0.00000
     91       8.5474      0.00000
     92       8.5965      0.00000
     93       8.6442      0.00000
     94       8.7164      0.00000
     95       8.8273      0.00000
     96       8.8436      0.00000
     97       8.9324      0.00000
     98       9.0220      0.00000
     99       9.0592      0.00000
    100       9.1558      0.00000
    101       9.2677      0.00000
    102       9.3347      0.00000
    103       9.3420      0.00000
    104       9.3534      0.00000
    105       9.3732      0.00000
    106       9.3929      0.00000
    107       9.4004      0.00000
    108       9.4160      0.00000
    109       9.4340      0.00000
    110       9.6577      0.00000
    111       9.7022      0.00000
    112      10.1505      0.00000
    113      10.2969      0.00000
    114      10.3159      0.00000
    115      10.3707      0.00000
    116      10.4421      0.00000
    117      10.7369      0.00000
    118      10.8639      0.00000
    119      11.2773      0.00000
    120      11.3560      0.00000
    121      11.4392      0.00000
    122      11.6625      0.00000
    123      11.9916      0.00000
    124      12.1204      0.00000
    125      12.1395      0.00000
    126      12.2358      0.00000
    127      12.3779      0.00000
    128      12.8640      0.00000

 k-point   2 :       0.0526    0.0000    0.0000
  band No.  band energies     occupation 
      1     -18.2600      2.00000
      2     -18.1823      2.00000
      3     -18.0618      2.00000
      4     -17.9019      2.00000
      5     -17.7030      2.00000
      6     -17.4646      2.00000
      7     -17.1864      2.00000
      8     -16.8684      2.00000
      9     -16.5102      2.00000
     10     -16.1120      2.00000
     11     -15.6747      2.00000
     12     -15.2002      2.00000
     13     -14.6923      2.00000
     14     -14.1593      2.00000
     15     -13.6251      2.00000
     16     -13.1723      2.00000
     17     -11.8810      2.00000
     18     -11.3347      2.00000
     19     -10.6849      2.00000
     20      -9.9894      2.00000
     21      -9.2669      2.00000
     22      -8.5255      2.00000
     23      -7.7730      2.00000
     24      -7.0143      2.00000
     25      -6.5305      2.00000
     26      -6.4401      2.00000
     27      -6.2992      2.00000
     28      -6.2605      2.00000
     29      -6.1120      2.00000
     30      -5.8792      2.00000
     31      -5.6013      2.00000
     32      -5.5851      2.00000
     33      -5.5243      2.00000
     34      -5.5072      2.00000
     35      -5.3969      2.00000
     36      -5.2790      2.00000
     37      -5.2489      2.00000
     38      -5.0724      2.00000
     39      -4.9135      2.00000
     40      -4.8588      2.00000
     41      -4.8152      2.00000
     42      -4.6093      2.00000
     43      -4.5065      2.00000
     44      -4.3504      2.00000
     45      -4.1390      2.00000
     46      -4.0612      2.00000
     47      -4.0433      2.00000
     48      -3.7157      2.00000
     49      -3.5830      2.00000
     50      -3.5697      2.00000
     51      -3.3623      2.00000
     52      -3.1314      2.00000
     53      -3.0809      2.00000
     54      -2.9591      2.00000
     55      -2.8024      2.00000
     56      -2.5804      2.00000
     57      -2.5709      2.00000
     58      -2.5307      2.00000
     59      -2.3302      2.00000
     60      -2.3086      2.00000
     61      -2.2127      2.00000
     62      -2.1497      2.00000
     63      -2.0810      2.00000
     64      -1.6601      2.00000
     65      -1.3739      2.00000
     66       2.8247      0.00000
     67       3.2193      0.00000
     68       3.7296      0.00000
     69       3.7725      0.00000
     70       3.7803      0.00000
     71       3.8605      0.00000
     72       4.0295      0.00000
     73       4.1969      0.00000
     74       4.4490      0.00000
     75       4.4843      0.00000
     76       4.6815      0.00000
     77       5.1271      0.00000
     78       5.1746      0.00000
     79       5.2284      0.00000
     80       5.8008      0.00000
     81       5.9447      0.00000
     82       5.9591      0.00000
     83       6.6122      0.00000
     84       6.7017      0.00000
     85       6.9727      0.00000
     86       7.4927      0.00000
     87       7.6641      0.00000
     88       8.1332      0.00000
     89       8.1640      0.00000
     90       8.7084      0.00000
     91       8.7850      0.00000
     92       8.8126      0.00000
     93       8.9188      0.00000
     94       8.9231      0.00000
     95       8.9582      0.00000
     96       9.0313      0.00000
     97       9.1170      0.00000
     98       9.2129      0.00000
     99       9.3205      0.00000
    100       9.3244      0.00000
    101       9.3886      0.00000
    102       9.4192      0.00000
    103       9.4496      0.00000
    104       9.4919      0.00000
    105       9.5108      0.00000
    106       9.5468      0.00000
    107       9.5482      0.00000
    108       9.5654      0.00000
    109       9.6207      0.00000
    110       9.7577      0.00000
    111       9.8834      0.00000
    112      10.2186      0.00000
    113      10.2341      0.00000
    114      10.2380      0.00000
    115      10.4898      0.00000
    116      10.5289      0.00000
    117      10.7528      0.00000
    118      10.9017      0.00000
    119      11.1759      0.00000
    120      11.2259      0.00000
    121      11.3984      0.00000
    122      11.7091      0.00000
    123      11.8510      0.00000
    124      11.9818      0.00000
    125      12.1023      0.00000
    126      12.1700      0.00000
    127      12.2114      0.00000
    128      12.8712      0.00000

 k-point   3 :       0.1053    0.0000    0.0000
  band No.  band energies     occupation 
      1     -18.1131      2.00000
      2     -18.0355      2.00000
      3     -17.9152      2.00000
      4     -17.7556      2.00000
      5     -17.5570      2.00000
      6     -17.3191      2.00000
      7     -17.0416      2.00000
      8     -16.7243      2.00000
      9     -16.3669      2.00000
     10     -15.9699      2.00000
     11     -15.5340      2.00000
     12     -15.0612      2.00000
     13     -14.5553      2.00000
     14     -14.0250      2.00000
     15     -13.4942      2.00000
     16     -13.0458      2.00000
     17     -11.7562      2.00000
     18     -11.2154      2.00000
     19     -10.5731      2.00000
     20      -9.8871      2.00000
     21      -9.1769      2.00000
     22      -8.4520      2.00000
     23      -7.7214      2.00000
     24      -6.9931      2.00000
     25      -6.3542      2.00000
     26      -6.2838      2.00000
     27      -6.2641      2.00000
     28      -6.1734      2.00000
     29      -6.1237      2.00000
     30      -6.0974      2.00000
     31      -5.9792      2.00000
     32      -5.9371      2.00000
     33      -5.8338      2.00000
     34      -5.7050      2.00000
     35      -5.6429      2.00000
     36      -5.6089      2.00000
     37      -5.4280      2.00000
     38      -5.4037      2.00000
     39      -5.1912      2.00000
     40      -5.1067      2.00000
     41      -4.9375      2.00000
     42      -4.8843      2.00000
     43      -4.7424      2.00000
     44      -4.5409      2.00000
     45      -4.4083      2.00000
     46      -4.3367      2.00000
     47      -4.1412      2.00000
     48      -3.9694      2.00000
     49      -3.8927      2.00000
     50      -3.7040      2.00000
     51      -3.5717      2.00000
     52      -3.4154      2.00000
     53      -3.3029      2.00000
     54      -3.2079      2.00000
     55      -2.9882      2.00000
     56      -2.9139      2.00000
     57      -2.8912      2.00000
     58      -2.7934      2.00000
     59      -2.6490      2.00000
     60      -2.5014      2.00000
     61      -2.4421      2.00000
     62      -2.4034      2.00000
     63      -1.9114      2.00000
     64      -1.4866      2.00000
     65      -1.1963      2.00000
     66       2.7722      0.00000
     67       3.1655      0.00000
     68       3.7209      0.00000
     69       3.9006      0.00000
     70       3.9651      0.00000
     71       4.0569      0.00000
     72       4.2237      0.00000
     73       4.3777      0.00000
     74       4.3933      0.00000
     75       4.6792      0.00000
     76       4.8736      0.00000
     77       5.0878      0.00000
     78       5.3229      0.00000
     79       5.3999      0.00000
     80       5.8348      0.00000
     81       5.9670      0.00000
     82       6.1555      0.00000
     83       6.5734      0.00000
     84       6.7935      0.00000
     85       7.1693      0.00000
     86       7.3303      0.00000
     87       7.8532      0.00000
     88       8.0063      0.00000
     89       8.3319      0.00000
     90       8.7410      0.00000
     91       8.9122      0.00000
     92       9.0439      0.00000
     93       9.1975      0.00000
     94       9.4344      0.00000
     95       9.4778      0.00000
     96       9.5841      0.00000
     97       9.6351      0.00000
     98       9.6633      0.00000
     99       9.6689      0.00000
    100       9.7844      0.00000
    101       9.7897      0.00000
    102       9.8167      0.00000
    103       9.9076      0.00000
    104       9.9599      0.00000
    105       9.9910      0.00000
    106       9.9931      0.00000
    107      10.0118      0.00000
    108      10.0668      0.00000
    109      10.0847      0.00000
    110      10.1283      0.00000
    111      10.1554      0.00000
    112      10.1645      0.00000
    113      10.3952      0.00000
    114      10.7081      0.00000
    115      10.8391      0.00000
    116      10.8405      0.00000
    117      10.8719      0.00000
    118      10.8791      0.00000
    119      11.0422      0.00000
    120      11.0681      0.00000
    121      11.4652      0.00000
    122      11.5066      0.00000
    123      11.5189      0.00000
    124      11.7370      0.00000
    125      11.7458      0.00000
    126      12.0621      0.00000
    127      12.2276      0.00000
    128      12.5850      0.00000

 k-point   4 :       0.1579    0.0000    0.0000
  band No.  band energies     occupation 
      1     -17.8687      2.00000
      2     -17.7914      2.00000
      3     -17.6714      2.00000
      4     -17.5122      2.00000
      5     -17.3143      2.00000
      6     -17.0772      2.00000
      7     -16.8007      2.00000
      8     -16.4846      2.00000
      9     -16.1289      2.00000
     10     -15.7337      2.00000
     11     -15.3002      2.00000
     12     -14.8303      2.00000
     13     -14.3279      2.00000
     14     -13.8020      2.00000
     15     -13.2769      2.00000
     16     -12.8354      2.00000
     17     -11.5551      2.00000
     18     -11.0244      2.00000
     19     -10.3965      2.00000
     20      -9.7302      2.00000
     21      -9.0473      2.00000
     22      -8.3612      2.00000
     23      -7.6880      2.00000
     24      -7.0527      2.00000
     25      -7.0145      2.00000
     26      -6.9298      2.00000
     27      -6.8123      2.00000
     28      -6.6416      2.00000
     29      -6.5220      2.00000
     30      -6.3661      2.00000
     31      -6.2248      2.00000
     32      -6.0621      2.00000
     33      -5.9725      2.00000
     34      -5.9169      2.00000
     35      -5.8839      2.00000
     36      -5.8329      2.00000
     37      -5.6473      2.00000
     38      -5.5542      2.00000
     39      -5.4166      2.00000
     40      -5.4069      2.00000
     41      -5.1459      2.00000
     42      -5.1413      2.00000
     43      -4.9375      2.00000
     44      -4.8220      2.00000
     45      -4.7175      2.00000
     46      -4.4879      2.00000
     47      -4.4599      2.00000
     48      -4.2832      2.00000
     49      -4.0905      2.00000
     50      -4.0567      2.00000
     51      -3.8563      2.00000
     52      -3.7757      2.00000
     53      -3.6151      2.00000
     54      -3.5753      2.00000
     55      -3.4780      2.00000
     56      -3.1830      2.00000
     57      -3.1401      2.00000
     58      -2.9969      2.00000
     59      -2.9051      2.00000
     60      -2.9041      2.00000
     61      -2.6397      2.00000
     62      -2.1285      2.00000
     63      -1.6328      2.00000
     64      -1.2006      2.00000
     65      -0.9020      2.00000
     66       2.6499      0.00000
     67       3.0411      0.00000
     68       3.5856      0.00000
     69       4.1780      0.00000
     70       4.2197      0.00000
     71       4.2904      0.00000
     72       4.3844      0.00000
     73       4.5483      0.00000
     74       4.7200      0.00000
     75       4.8987      0.00000
     76       5.0037      0.00000
     77       5.1904      0.00000
     78       5.6030      0.00000
     79       5.6481      0.00000
     80       5.6741      0.00000
     81       6.2419      0.00000
     82       6.3011      0.00000
     83       6.4811      0.00000
     84       7.0004      0.00000
     85       7.0925      0.00000
     86       7.4941      0.00000
     87       7.6538      0.00000
     88       8.1584      0.00000
     89       8.3109      0.00000
     90       8.6509      0.00000
     91       8.8538      0.00000
     92       9.0663      0.00000
     93       9.3344      0.00000
     94       9.4419      0.00000
     95       9.4557      0.00000
     96       9.4835      0.00000
     97       9.6071      0.00000
     98       9.7363      0.00000
     99       9.7405      0.00000
    100       9.9452      0.00000
    101      10.1674      0.00000
    102      10.2640      0.00000
    103      10.2816      0.00000
    104      10.3474      0.00000
    105      10.6230      0.00000
    106      10.6313      0.00000
    107      10.7881      0.00000
    108      10.7976      0.00000
    109      10.8033      0.00000
    110      10.8550      0.00000
    111      10.8983      0.00000
    112      10.9087      0.00000
    113      10.9776      0.00000
    114      11.0111      0.00000
    115      11.0465      0.00000
    116      11.0618      0.00000
    117      11.1462      0.00000
    118      11.1544      0.00000
    119      11.2726      0.00000
    120      11.4241      0.00000
    121      11.5407      0.00000
    122      11.6370      0.00000
    123      11.9289      0.00000
    124      12.1314      0.00000
    125      12.2204      0.00000
    126      12.3920      0.00000
    127      12.4364      0.00000
    128      12.6315      0.00000

 k-point   5 :       0.2105    0.0000    0.0000
  band No.  band energies     occupation 
      1     -17.5279      2.00000
      2     -17.4508      2.00000
      3     -17.3312      2.00000
      4     -17.1727      2.00000
      5     -16.9757      2.00000
      6     -16.7397      2.00000
      7     -16.4647      2.00000
      8     -16.1504      2.00000
      9     -15.7969      2.00000
     10     -15.4046      2.00000
     11     -14.9744      2.00000
     12     -14.5087      2.00000
     13     -14.0116      2.00000
     14     -13.4922      2.00000
     15     -12.9749      2.00000
     16     -12.5419      2.00000
     17     -11.2959      2.00000
     18     -10.7834      2.00000
     19     -10.1858      2.00000
     20      -9.5666      2.00000
     21      -8.9582      2.00000
     22      -8.3916      2.00000
     23      -7.9777      2.00000
     24      -7.9021      2.00000
     25      -7.8819      2.00000
     26      -7.7179      2.00000
     27      -7.5854      2.00000
     28      -7.3876      2.00000
     29      -7.3155      2.00000
     30      -6.9846      2.00000
     31      -6.9735      2.00000
     32      -6.5758      2.00000
     33      -6.5593      2.00000
     34      -6.1510      2.00000
     35      -6.0877      2.00000
     36      -5.7471      2.00000
     37      -5.6564      2.00000
     38      -5.5677      2.00000
     39      -5.5536      2.00000
     40      -5.4294      2.00000
     41      -5.3516      2.00000
     42      -5.2456      2.00000
     43      -5.0363      2.00000
     44      -5.0173      2.00000
     45      -4.9618      2.00000
     46      -4.7448      2.00000
     47      -4.6891      2.00000
     48      -4.5001      2.00000
     49      -4.4804      2.00000
     50      -4.4290      2.00000
     51      -4.0781      2.00000
     52      -4.0709      2.00000
     53      -3.7579      2.00000
     54      -3.6720      2.00000
     55      -3.5638      2.00000
     56      -3.5424      2.00000
     57      -3.4104      2.00000
     58      -3.4075      2.00000
     59      -3.2350      2.00000
     60      -2.7641      2.00000
     61      -2.2665      2.00000
     62      -1.7552      2.00000
     63      -1.2537      2.00000
     64      -0.8084      2.00000
     65      -0.4940      2.00000
     66       2.4121      0.00000
     67       2.8026      0.00000
     68       3.3305      0.00000
     69       3.9292      0.00000
     70       4.5589      0.00000
     71       4.5595      0.00000
     72       4.7481      0.00000
     73       4.8428      0.00000
     74       5.0039      0.00000
     75       5.1761      0.00000
     76       5.2002      0.00000
     77       5.4578      0.00000
     78       5.6238      0.00000
     79       5.8338      0.00000
     80       6.0389      0.00000
     81       6.1020      0.00000
     82       6.4579      0.00000
     83       6.6343      0.00000
     84       6.9348      0.00000
     85       7.0549      0.00000
     86       7.5126      0.00000
     87       7.6349      0.00000
     88       7.9453      0.00000
     89       8.1679      0.00000
     90       8.5793      0.00000
     91       8.6785      0.00000
     92       9.0582      0.00000
     93       9.1071      0.00000
     94       9.2161      0.00000
     95       9.3337      0.00000
     96       9.3458      0.00000
     97       9.5048      0.00000
     98       9.5452      0.00000
     99       9.7075      0.00000
    100       9.7401      0.00000
    101       9.7676      0.00000
    102       9.8970      0.00000
    103       9.9763      0.00000
    104      10.1536      0.00000
    105      10.2080      0.00000
    106      10.3708      0.00000
    107      10.7697      0.00000
    108      10.7780      0.00000
    109      10.9899      0.00000
    110      11.1222      0.00000
    111      11.1749      0.00000
    112      11.5654      0.00000
    113      11.7216      0.00000
    114      11.8988      0.00000
    115      12.0334      0.00000
    116      12.1517      0.00000
    117      12.1695      0.00000
    118      12.1978      0.00000
    119      12.2544      0.00000
    120      12.2942      0.00000
    121      12.4633      0.00000
    122      12.5574      0.00000
    123      12.6645      0.00000
    124      12.9026      0.00000
    125      12.9184      0.00000
    126      13.0455      0.00000
    127      13.0760      0.00000
    128      13.2061      0.00000

 k-point   6 :       0.2632    0.0000    0.0000
  band No.  band energies     occupation 
      1     -17.0917      2.00000
      2     -17.0150      2.00000
      3     -16.8960      2.00000
      4     -16.7384      2.00000
      5     -16.5425      2.00000
      6     -16.3081      2.00000
      7     -16.0350      2.00000
      8     -15.7232      2.00000
      9     -15.3728      2.00000
     10     -14.9843      2.00000
     11     -14.5589      2.00000
     12     -14.0992      2.00000
     13     -13.6096      2.00000
     14     -13.0993      2.00000
     15     -12.5921      2.00000
     16     -12.1672      2.00000
     17     -11.0436      2.00000
     18     -10.5795      2.00000
     19     -10.0797      2.00000
     20      -9.6256      2.00000
     21      -9.2448      2.00000
     22      -8.9226      2.00000
     23      -8.9038      2.00000
     24      -8.7553      2.00000
     25      -8.6337      2.00000
     26      -8.4962      2.00000
     27      -8.3085      2.00000
     28      -8.1670      2.00000
     29      -7.9253      2.00000
     30      -7.7684      2.00000
     31      -7.5387      2.00000
     32      -7.2640      2.00000
     33      -7.1513      2.00000
     34      -6.7567      2.00000
     35      -6.6972      2.00000
     36      -6.3618      2.00000
     37      -6.1184      2.00000
     38      -5.9829      2.00000
     39      -5.6616      2.00000
     40      -5.5558      2.00000
     41      -5.4397      2.00000
     42      -5.1411      2.00000
     43      -5.0537      2.00000
     44      -5.0505      2.00000
     45      -4.9176      2.00000
     46      -4.7369      2.00000
     47      -4.6239      2.00000
     48      -4.5124      2.00000
     49      -4.3046      2.00000
     50      -4.2577      2.00000
     51      -4.2448      2.00000
     52      -4.1387      2.00000
     53      -4.1229      2.00000
     54      -3.9348      2.00000
     55      -3.8973      2.00000
     56      -3.8904      2.00000
     57      -3.5836      2.00000
     58      -3.1927      2.00000
     59      -2.7642      2.00000
     60      -2.3019      2.00000
     61      -1.8115      2.00000
     62      -1.3029      2.00000
     63      -0.7947      2.00000
     64      -0.3268      2.00000
     65       0.0204      2.00000
     66       2.0186      0.00000
     67       2.4189      0.00000
     68       2.9285      0.00000
     69       3.4812      0.00000
     70       4.0463      0.00000
     71       4.6110      0.00000
     72       5.0425      0.00000
     73       5.1665      0.00000
     74       5.3371      0.00000
     75       5.4315      0.00000
     76       5.5906      0.00000
     77       5.7113      0.00000
     78       5.7588      0.00000
     79       6.0414      0.00000
     80       6.1478      0.00000
     81       6.2401      0.00000
     82       6.5000      0.00000
     83       6.6835      0.00000
     84       6.7535      0.00000
     85       7.1593      0.00000
     86       7.2416      0.00000
     87       7.5152      0.00000
     88       7.7013      0.00000
     89       8.0582      0.00000
     90       8.1132      0.00000
     91       8.4661      0.00000
     92       8.5203      0.00000
     93       8.7311      0.00000
     94       8.8945      0.00000
     95       9.1051      0.00000
     96       9.1201      0.00000
     97       9.1626      0.00000
     98       9.3460      0.00000
     99       9.4471      0.00000
    100       9.4844      0.00000
    101       9.6930      0.00000
    102       9.7745      0.00000
    103      10.0435      0.00000
    104      10.2490      0.00000
    105      10.3070      0.00000
    106      10.4466      0.00000
    107      10.7073      0.00000
    108      10.9040      0.00000
    109      11.1162      0.00000
    110      11.1962      0.00000
    111      11.4572      0.00000
    112      11.6264      0.00000
    113      11.6295      0.00000
    114      12.2430      0.00000
    115      12.2801      0.00000
    116      12.2944      0.00000
    117      12.4926      0.00000
    118      12.5270      0.00000
    119      12.7307      0.00000
    120      12.8333      0.00000
    121      12.8922      0.00000
    122      13.1493      0.00000
    123      13.1876      0.00000
    124      13.3722      0.00000
    125      13.4078      0.00000
    126      13.4089      0.00000
    127      13.4634      0.00000
    128      13.4778      0.00000

 k-point   7 :       0.3158    0.0000    0.0000
  band No.  band energies     occupation 
      1     -16.5621      2.00000
      2     -16.4858      2.00000
      3     -16.3676      2.00000
      4     -16.2111      2.00000
      5     -16.0167      2.00000
      6     -15.7843      2.00000
      7     -15.5139      2.00000
      8     -15.2055      2.00000
      9     -14.8593      2.00000
     10     -14.4762      2.00000
     11     -14.0579      2.00000
     12     -13.6074      2.00000
     13     -13.1301      2.00000
     14     -12.6356      2.00000
     15     -12.1447      2.00000
     16     -11.7187      2.00000
     17     -11.0694      2.00000
     18     -10.7635      2.00000
     19     -10.5064      2.00000
     20     -10.2818      2.00000
     21     -10.0559      2.00000
     22      -9.8115      2.00000
     23      -9.5481      2.00000
     24      -9.4620      2.00000
     25      -9.2594      2.00000
     26      -9.1700      2.00000
     27      -8.9201      2.00000
     28      -8.7594      2.00000
     29      -8.5592      2.00000
     30      -8.2494      2.00000
     31      -8.1787      2.00000
     32      -7.7819      2.00000
     33      -7.6853      2.00000
     34      -7.3782      2.00000
     35      -7.1028      2.00000
     36      -6.9851      2.00000
     37      -6.6420      2.00000
     38      -6.5248      2.00000
     39      -6.4042      2.00000
     40      -5.9796      2.00000
     41      -5.4882      2.00000
     42      -5.0768      2.00000
     43      -5.0381      2.00000
     44      -4.8490      2.00000
     45      -4.7786      2.00000
     46      -4.6625      2.00000
     47      -4.6165      2.00000
     48      -4.5218      2.00000
     49      -4.4367      2.00000
     50      -4.3291      2.00000
     51      -4.3265      2.00000
     52      -4.3043      2.00000
     53      -4.1286      2.00000
     54      -3.9108      2.00000
     55      -3.6517      2.00000
     56      -3.3522      2.00000
     57      -3.0138      2.00000
     58      -2.6380      2.00000
     59      -2.2272      2.00000
     60      -1.7845      2.00000
     61      -1.3142      2.00000
     62      -0.8224      2.00000
     63      -0.3181      2.00000
     64       0.1805      2.00000
     65       0.6141      2.00000
     66       1.4827      0.00000
     67       1.9337      0.00000
     68       2.4264      0.00000
     69       2.9208      0.00000
     70       3.4084      0.00000
     71       3.8888      0.00000
     72       4.3627      0.00000
     73       4.8319      0.00000
     74       5.2958      0.00000
     75       5.6219      0.00000
     76       5.7532      0.00000
     77       6.0561      0.00000
     78       6.1490      0.00000
     79       6.1977      0.00000
     80       6.3074      0.00000
     81       6.4550      0.00000
     82       6.6209      0.00000
     83       6.7079      0.00000
     84       6.7536      0.00000
     85       7.0075      0.00000
     86       7.1116      0.00000
     87       7.3389      0.00000
     88       7.3903      0.00000
     89       7.5903      0.00000
     90       7.7425      0.00000
     91       7.8228      0.00000
     92       8.2188      0.00000
     93       8.7276      0.00000
     94       8.9700      0.00000
     95       8.9874      0.00000
     96       9.1688      0.00000
     97       9.2302      0.00000
     98       9.2350      0.00000
     99       9.5967      0.00000
    100       9.6923      0.00000
    101       9.7697      0.00000
    102       9.8310      0.00000
    103      10.1637      0.00000
    104      10.3400      0.00000
    105      10.4934      0.00000
    106      10.8172      0.00000
    107      10.8750      0.00000
    108      10.9296      0.00000
    109      11.3325      0.00000
    110      11.4424      0.00000
    111      11.5106      0.00000
    112      11.5195      0.00000
    113      11.9936      0.00000
    114      12.0258      0.00000
    115      12.2146      0.00000
    116      12.2315      0.00000
    117      12.2914      0.00000
    118      12.5843      0.00000
    119      12.8314      0.00000
    120      12.8746      0.00000
    121      12.9958      0.00000
    122      13.1074      0.00000
    123      13.3479      0.00000
    124      13.3733      0.00000
    125      13.4447      0.00000
    126      13.5440      0.00000
    127      13.7204      0.00000
    128      13.7474      0.00000

 k-point   8 :       0.3684    0.0000    0.0000
  band No.  band energies     occupation 
      1     -15.9419      2.00000
      2     -15.8661      2.00000
      3     -15.7490      2.00000
      4     -15.5939      2.00000
      5     -15.4016      2.00000
      6     -15.1720      2.00000
      7     -14.9052      2.00000
      8     -14.6017      2.00000
      9     -14.2622      2.00000
     10     -13.8884      2.00000
     11     -13.4838      2.00000
     12     -13.0550      2.00000
     13     -12.6161      2.00000
     14     -12.2035      2.00000
     15     -11.9176      2.00000
     16     -11.5077      2.00000
     17     -11.5027      2.00000
     18     -11.2405      2.00000
     19     -11.1924      2.00000
     20     -11.0907      2.00000
     21     -10.9968      2.00000
     22     -10.7851      2.00000
     23     -10.5351      2.00000
     24     -10.2471      2.00000
     25      -9.9254      2.00000
     26      -9.5718      2.00000
     27      -9.3236      2.00000
     28      -9.1893      2.00000
     29      -8.9405      2.00000
     30      -8.7857      2.00000
     31      -8.4449      2.00000
     32      -8.3696      2.00000
     33      -7.9656      2.00000
     34      -7.8941      2.00000
     35      -7.5983      2.00000
     36      -7.3426      2.00000
     37      -7.3349      2.00000
     38      -6.7837      2.00000
     39      -6.2639      2.00000
     40      -5.8473      2.00000
     41      -5.7982      2.00000
     42      -5.5987      2.00000
     43      -5.4173      2.00000
     44      -5.3214      2.00000
     45      -5.1555      2.00000
     46      -5.0778      2.00000
     47      -5.0111      2.00000
     48      -4.6881      2.00000
     49      -4.6833      2.00000
     50      -3.8071      2.00000
     51      -3.7259      2.00000
     52      -3.5998      2.00000
     53      -3.4332      2.00000
     54      -3.2276      2.00000
     55      -2.9843      2.00000
     56      -2.7051      2.00000
     57      -2.3924      2.00000
     58      -2.0491      2.00000
     59      -1.6790      2.00000
     60      -1.2871      2.00000
     61      -0.8803      2.00000
     62      -0.4675      2.00000
     63      -0.0622      2.00000
     64       0.3070      2.00000
     65       1.0619      0.99383
     66       1.0993      0.28677
     67       1.7463      0.00000
     68       2.0856      0.00000
     69       2.4411      0.00000
     70       2.8017      0.00000
     71       3.1687      0.00000
     72       3.5447      0.00000
     73       3.9309      0.00000
     74       4.3266      0.00000
     75       4.7283      0.00000
     76       5.1289      0.00000
     77       5.5177      0.00000
     78       5.8788      0.00000
     79       6.1913      0.00000
     80       6.2868      0.00000
     81       6.4298      0.00000
     82       6.5739      0.00000
     83       6.9032      0.00000
     84       6.9871      0.00000
     85       7.1463      0.00000
     86       7.1526      0.00000
     87       7.3915      0.00000
     88       7.5914      0.00000
     89       7.8980      0.00000
     90       8.2083      0.00000
     91       8.5983      0.00000
     92       8.8130      0.00000
     93       8.8308      0.00000
     94       9.0161      0.00000
     95       9.1010      0.00000
     96       9.1071      0.00000
     97       9.3801      0.00000
     98       9.5165      0.00000
     99       9.5216      0.00000
    100       9.9400      0.00000
    101      10.0620      0.00000
    102      10.0777      0.00000
    103      10.1927      0.00000
    104      10.5301      0.00000
    105      10.7152      0.00000
    106      10.9338      0.00000
    107      11.1576      0.00000
    108      11.3248      0.00000
    109      11.5124      0.00000
    110      11.5664      0.00000
    111      11.7193      0.00000
    112      11.9103      0.00000
    113      12.1025      0.00000
    114      12.1314      0.00000
    115      12.1442      0.00000
    116      12.4606      0.00000
    117      12.4820      0.00000
    118      12.6922      0.00000
    119      12.7482      0.00000
    120      12.7679      0.00000
    121      12.8754      0.00000
    122      12.9651      0.00000
    123      13.0062      0.00000
    124      13.1279      0.00000
    125      13.2785      0.00000
    126      13.3525      0.00000
    127      13.3707      0.00000
    128      13.4057      0.00000

 k-point   9 :       0.4211    0.0000    0.0000
  band No.  band energies     occupation 
      1     -15.2351      2.00000
      2     -15.1603      2.00000
      3     -15.0445      2.00000
      4     -14.8916      2.00000
      5     -14.7024      2.00000
      6     -14.4773      2.00000
      7     -14.2171      2.00000
      8     -13.9234      2.00000
      9     -13.6000      2.00000
     10     -13.2560      2.00000
     11     -12.9182      2.00000
     12     -12.6987      2.00000
     13     -12.6704      2.00000
     14     -12.6518      2.00000
     15     -12.6110      2.00000
     16     -11.9441      2.00000
     17     -11.9376      2.00000
     18     -11.7023      2.00000
     19     -11.6340      2.00000
     20     -11.4680      2.00000
     21     -11.2695      2.00000
     22     -11.1724      2.00000
     23     -10.9071      2.00000
     24     -10.8162      2.00000
     25     -10.5502      2.00000
     26     -10.5109      2.00000
     27     -10.1537      2.00000
     28      -9.7441      2.00000
     29      -9.3185      2.00000
     30      -8.8946      2.00000
     31      -8.8127      2.00000
     32      -8.5093      2.00000
     33      -8.4210      2.00000
     34      -8.2348      2.00000
     35      -7.9327      2.00000
     36      -7.4131      2.00000
     37      -6.8964      2.00000
     38      -6.6547      2.00000
     39      -6.4084      2.00000
     40      -6.3560      2.00000
     41      -6.0152      2.00000
     42      -5.9675      2.00000
     43      -5.6936      2.00000
     44      -5.6054      2.00000
     45      -5.4411      2.00000
     46      -5.3460      2.00000
     47      -5.2886      2.00000
     48      -4.9444      2.00000
     49      -4.9427      2.00000
     50      -3.0095      2.00000
     51      -2.9354      2.00000
     52      -2.8214      2.00000
     53      -2.6723      2.00000
     54      -2.4909      2.00000
     55      -2.2802      2.00000
     56      -2.0444      2.00000
     57      -1.7892      2.00000
     58      -1.5223      2.00000
     59      -1.2539      2.00000
     60      -0.9969      2.00000
     61      -0.7668      2.00000
     62      -0.5793      2.00000
     63      -0.4470      2.00000
     64      -0.3740      2.00000
     65       1.0704      0.80381
     66       1.0705      0.80143
     67       2.3958      0.00000
     68       2.4134      0.00000
     69       2.4639      0.00000
     70       2.5600      0.00000
     71       2.7101      0.00000
     72       2.9142      0.00000
     73       3.1666      0.00000
     74       3.4588      0.00000
     75       3.7806      0.00000
     76       4.1197      0.00000
     77       4.4615      0.00000
     78       4.7872      0.00000
     79       5.0738      0.00000
     80       5.2946      0.00000
     81       5.4280      0.00000
     82       7.0129      0.00000
     83       7.6687      0.00000
     84       7.8752      0.00000
     85       7.9789      0.00000
     86       8.1224      0.00000
     87       8.3282      0.00000
     88       8.5345      0.00000
     89       8.6379      0.00000
     90       8.6594      0.00000
     91       8.8239      0.00000
     92       8.8768      0.00000
     93       9.0337      0.00000
     94       9.1698      0.00000
     95       9.3034      0.00000
     96       9.3877      0.00000
     97       9.5733      0.00000
     98       9.5818      0.00000
     99       9.9197      0.00000
    100       9.9926      0.00000
    101      10.3601      0.00000
    102      10.3964      0.00000
    103      10.5244      0.00000
    104      10.6341      0.00000
    105      11.0427      0.00000
    106      11.0864      0.00000
    107      11.4400      0.00000
    108      11.4811      0.00000
    109      11.5250      0.00000
    110      11.5658      0.00000
    111      11.6689      0.00000
    112      11.7027      0.00000
    113      11.8516      0.00000
    114      12.0200      0.00000
    115      12.0792      0.00000
    116      12.2382      0.00000
    117      12.2777      0.00000
    118      12.4111      0.00000
    119      12.4519      0.00000
    120      12.4681      0.00000
    121      12.5110      0.00000
    122      12.7361      0.00000
    123      12.7918      0.00000
    124      12.9270      0.00000
    125      12.9611      0.00000
    126      13.1541      0.00000
    127      13.2060      0.00000
    128      13.2309      0.00000

 k-point  10 :       0.4737    0.0000    0.0000
  band No.  band energies     occupation 
      1     -14.4485      2.00000
      2     -14.3751      2.00000
      3     -14.2620      2.00000
      4     -14.1134      2.00000
      5     -13.9312      2.00000
      6     -13.7179      2.00000
      7     -13.5937      2.00000
      8     -13.5244      2.00000
      9     -13.4796      2.00000
     10     -13.4194      2.00000
     11     -13.2877      2.00000
     12     -13.2331      2.00000
     13     -13.1406      2.00000
     14     -13.0390      2.00000
     15     -13.0192      2.00000
     16     -12.2541      2.00000
     17     -12.2063      2.00000
     18     -12.0053      2.00000
     19     -11.8528      2.00000
     20     -11.7302      2.00000
     21     -11.4731      2.00000
     22     -11.3818      2.00000
     23     -11.0649      2.00000
     24     -10.9791      2.00000
     25     -10.6414      2.00000
     26     -10.5473      2.00000
     27     -10.2049      2.00000
     28     -10.1353      2.00000
     29      -9.8350      2.00000
     30      -9.7615      2.00000
     31      -9.3604      2.00000
     32      -9.0683      2.00000
     33      -8.1632      2.00000
     34      -7.7914      2.00000
     35      -7.4346      2.00000
     36      -7.3366      2.00000
     37      -7.0948      2.00000
     38      -6.8650      2.00000
     39      -6.6880      2.00000
     40      -6.4133      2.00000
     41      -6.2813      2.00000
     42      -6.0099      2.00000
     43      -5.9152      2.00000
     44      -5.6829      2.00000
     45      -5.6240      2.00000
     46      -5.4617      2.00000
     47      -5.4404      2.00000
     48      -5.0804      2.00000
     49      -5.0786      2.00000
     50      -2.1480      2.00000
     51      -2.0885      2.00000
     52      -1.9997      2.00000
     53      -1.8884      2.00000
     54      -1.7606      2.00000
     55      -1.6240      2.00000
     56      -1.4889      2.00000
     57      -1.3675      2.00000
     58      -1.2726      2.00000
     59      -1.2531      2.00000
     60      -1.2310      2.00000
     61      -1.2158      2.00000
     62      -1.2090      2.00000
     63      -1.1535      2.00000
     64      -1.1527      2.00000
     65       1.0345      1.55807
     66       1.0346      1.55609
     67       2.7220      0.00000
     68       2.7236      0.00000
     69       2.8382      0.00000
     70       2.8485      0.00000
     71       2.9926      0.00000
     72       3.0281      0.00000
     73       3.1539      0.00000
     74       3.2185      0.00000
     75       3.3177      0.00000
     76       3.3181      0.00000
     77       3.5428      0.00000
     78       3.7970      0.00000
     79       4.0340      0.00000
     80       4.2212      0.00000
     81       4.3347      0.00000
     82       7.7176      0.00000
     83       8.0989      0.00000
     84       8.5090      0.00000
     85       8.6245      0.00000
     86       8.7342      0.00000
     87       8.8181      0.00000
     88       8.9663      0.00000
     89       8.9836      0.00000
     90       9.0641      0.00000
     91       9.2139      0.00000
     92       9.2302      0.00000
     93       9.4212      0.00000
     94       9.5539      0.00000
     95       9.6245      0.00000
     96       9.6512      0.00000
     97       9.9682      0.00000
     98      10.0492      0.00000
     99      10.1650      0.00000
    100      10.2489      0.00000
    101      10.2979      0.00000
    102      10.3222      0.00000
    103      10.4154      0.00000
    104      10.6021      0.00000
    105      10.6733      0.00000
    106      10.7257      0.00000
    107      10.8932      0.00000
    108      11.0191      0.00000
    109      11.0795      0.00000
    110      11.1405      0.00000
    111      11.3442      0.00000
    112      11.5020      0.00000
    113      11.5374      0.00000
    114      11.6743      0.00000
    115      11.9581      0.00000
    116      12.0483      0.00000
    117      12.1194      0.00000
    118      12.3033      0.00000
    119      12.4404      0.00000
    120      12.4526      0.00000
    121      12.7216      0.00000
    122      12.8174      0.00000
    123      12.9234      0.00000
    124      13.0117      0.00000
    125      13.1004      0.00000
    126      13.2394      0.00000
    127      13.2425      0.00000
    128      13.2651      0.00000


--------------------------------------------------------------------------------------------------------


 soft charge-density along one line, spin component           1
         0         1         2         3         4         5         6         7         8         9
 total charge-density along one line
 
 pseudopotential strength for first ion, spin component:           1
 10.475   0.000   0.008   0.000   0.001   0.000   0.000   0.000   0.000   0.000  -0.001   0.000   0.000   0.000   0.000   0.000
  0.008   0.000  -0.001   0.000   0.000   0.000   0.000   0.000   0.000   0.000   0.000   0.000   0.000   0.000   0.000   0.000
  0.001   0.000   0.000   0.000  -4.014   0.000   0.000   0.000   0.000   0.000  -0.008   0.000   0.000   0.000   0.000   0.000
  0.000   0.000   0.000   0.000   0.000   0.000  -4.004   0.000   0.000   0.000   0.000   0.000  -0.004   0.000   0.000   0.000
  0.000   0.000   0.000   0.000   0.000   0.000   0.000   0.000  -4.015   0.000   0.000   0.000   0.000   0.000  -0.009   0.000
 -0.001   0.000   0.000   0.000  -0.008   0.000   0.000   0.000   0.000   0.000  -1.088   0.000   0.000   0.000   0.000   0.000
  0.000   0.000   0.000   0.000   0.000   0.000  -0.004   0.000   0.000   0.000   0.000   0.000  -1.088   0.000   0.000   0.000
  0.000   0.000   0.000   0.000   0.000   0.000   0.000   0.000  -0.009   0.000   0.000   0.000   0.000   0.000  -1.088   0.000
 total augmentation occupancy for first ion, spin component:           1
  1.473  -1.094   0.017   0.000   0.000   0.016   0.000   0.000
 -1.094   0.957  -0.076   0.000   0.000  -0.035   0.000   0.000
  0.017  -0.076   1.190   0.000   0.000   0.200   0.000   0.000
  0.000   0.000   0.000   0.958   0.000   0.000   0.091   0.000
  0.000   0.000   0.000   0.000   1.252   0.000   0.000   0.229
  0.016  -0.035   0.200   0.000   0.000   0.036   0.000   0.000
  0.000   0.000   0.000   0.091   0.000   0.000   0.010   0.000
  0.000   0.000   0.000   0.000   0.229   0.000   0.000   0.047


------------------------ aborting loop because EDIFF is reached ----------------------------------------


 


 total charge     
 
# of ion     s       p       d       tot
----------------------------------------
  1        0.858   1.782   0.000   2.640
  2        0.858   1.807   0.000   2.665
  3        0.855   1.792   0.000   2.647
  4        0.855   1.800   0.000   2.654
  5        0.855   1.800   0.000   2.654
  6        0.854   1.801   0.000   2.655
  7        0.854   1.800   0.000   2.654
  8        0.854   1.801   0.000   2.655
  9        0.854   1.800   0.000   2.655
 10        0.854   1.801   0.000   2.655
 11        0.854   1.800   0.000   2.655
 12        0.854   1.801   0.000   2.655
 13        0.854   1.800   0.000   2.655
 14        0.854   1.801   0.000   2.655
 15        0.854   1.800   0.000   2.655
 16        0.854   1.801   0.000   2.655
 17        0.854   1.801   0.000   2.655
 18        0.854   1.800   0.000   2.655
 19        0.854   1.801   0.000   2.655
 20        0.854   1.800   0.000   2.655
 21        0.854   1.801   0.000   2.655
 22        0.854   1.800   0.000   2.655
 23        0.854   1.801   0.000   2.655
 24        0.854   1.800   0.000   2.655
 25        0.854   1.801   0.000   2.655
 26        0.854   1.800   0.000   2.654
 27        0.854   1.801   0.000   2.655
 28        0.855   1.800   0.000   2.654
 29        0.855   1.800   0.000   2.654
 30        0.855   1.792   0.000   2.647
 31        0.858   1.807   0.000   2.665
 32        0.858   1.782   0.000   2.640
 33        0.624   0.044   0.000   0.668
 34        0.624   0.044   0.000   0.668
------------------------------------------------
tot       28.600  57.660   0.000  86.260
 
    CHARGE:  cpu time    0.24: real time    0.24
    FORLOC:  cpu time    0.01: real time    0.01
    FORNL :  cpu time    0.74: real time    0.75
    STRESS:  cpu time    4.78: real time    4.80
    FORHAR:  cpu time    0.03: real time    0.03
    MIXING:  cpu time    0.00: real time    0.00

  FORCE on cell =-STRESS in cart. coord.  units (eV):
  Direction    XX          YY          ZZ          XY          YZ          ZX
  --------------------------------------------------------------------------------------
  Alpha Z   161.85383   161.85383   161.85383
  Ewald   10256.36222 -4314.63631   -17.47359     0.00000     0.00000     0.00000
  Hartree 10344.80594 -3957.78282  4139.25080     0.00000     0.00000     0.00000
  E(xc)    -470.00135  -470.00135  -470.00135     0.00000     0.00000     0.00000
  Local  -22161.32289  6715.11858 -5947.53645     0.00000     0.00000     0.00000
  n-local   -72.35618   -73.16037   -64.84143     0.00000     0.00000     0.00000
  augment    -4.11369    -4.14273    -3.91768     0.00000     0.00000     0.00000
  Kinetic  1928.93869  1930.77736  2216.60981     0.00000     0.00000     0.00000
  Fock        0.00000     0.00000     0.00000     0.00000     0.00000     0.00000
  -------------------------------------------------------------------------------------
  Total     -15.83344   -11.97380    13.94394     0.00000     0.00000     0.00000
  in kB     -51.69539   -39.09386    45.52626     0.00000     0.00000     0.00000
  external pressure =      -15.09 kB  Pullay stress =        0.00 kB


 VOLUME and BASIS-vectors are now :
 -----------------------------------------------------------------------------
  energy-cutoff  :      500.00
  volume of cell :      490.72
      direct lattice vectors                 reciprocal lattice vectors
     2.461000000  0.000000000  0.000000000     0.406338887  0.000000000  0.000000000
     0.000000000 39.879757287  0.000000000     0.000000000  0.025075378  0.000000000
     0.000000000  0.000000000  5.000000000     0.000000000  0.000000000  0.200000000

  length of vectors
     2.461000000 39.879757287  5.000000000     0.406338887  0.025075378  0.200000000


 FORCES acting on ions
    electron-ion (+dipol)            ewald-force                    non-local-force                 convergence-correction
 -----------------------------------------------------------------------------------------------
   -.951E-15 0.530E+03 -.297E-13   -.372E-14 -.530E+03 -.202E-15   0.000E+00 0.759E+00 0.000E+00   0.802E-15 -.669E-02 -.344E-18
   0.719E-14 0.471E+03 -.268E-13   0.267E-14 -.472E+03 -.384E-16   0.000E+00 0.820E+00 0.000E+00   -.110E-14 -.958E-02 -.147E-18
   0.110E-13 0.417E+03 -.128E-13   0.346E-14 -.417E+03 -.262E-15   0.000E+00 0.439E+00 0.000E+00   -.699E-15 -.951E-02 -.543E-19
   -.124E-15 0.393E+03 0.293E-13   -.803E-14 -.393E+03 -.261E-15   0.000E+00 0.720E-01 0.000E+00   0.347E-15 -.877E-02 0.388E-18
   -.102E-14 0.351E+03 -.154E-13   0.303E-14 -.351E+03 -.398E-15   0.000E+00 0.136E+00 0.000E+00   0.262E-15 -.662E-02 0.409E-18
   0.120E-13 0.330E+03 -.240E-13   -.825E-14 -.330E+03 0.107E-15   0.000E+00 0.193E-01 0.000E+00   -.316E-15 -.566E-02 -.512E-18
   0.598E-14 0.289E+03 -.124E-13   0.773E-18 -.289E+03 -.921E-15   0.000E+00 0.550E-01 0.000E+00   -.271E-16 -.430E-02 0.385E-19
   -.386E-15 0.268E+03 -.579E-13   -.284E-14 -.268E+03 0.609E-15   0.000E+00 0.467E-03 0.000E+00   0.425E-15 -.381E-02 0.125E-18
   -.881E-15 0.227E+03 -.260E-13   0.854E-16 -.227E+03 -.939E-15   0.000E+00 0.254E-01 0.000E+00   -.973E-16 -.324E-02 -.295E-18
   0.931E-14 0.206E+03 0.177E-13   -.239E-14 -.206E+03 0.491E-15   0.000E+00 -.576E-02 0.000E+00   0.297E-15 -.302E-02 0.280E-18
   0.210E-13 0.165E+03 0.767E-14   0.320E-14 -.165E+03 -.330E-15   0.000E+00 0.133E-01 0.000E+00   -.100E-14 -.275E-02 -.535E-19
   -.122E-16 0.144E+03 0.216E-13   -.535E-14 -.144E+03 0.331E-16   0.000E+00 -.710E-02 0.000E+00   0.126E-14 -.254E-02 0.145E-18
   -.417E-15 0.103E+03 0.433E-13   0.320E-14 -.103E+03 -.330E-15   0.000E+00 0.858E-02 0.000E+00   0.411E-15 -.207E-02 -.191E-18
   0.131E-13 0.825E+02 -.640E-13   -.615E-14 -.825E+02 0.171E-16   0.000E+00 -.703E-02 0.000E+00   -.488E-16 -.174E-02 -.123E-18
   0.667E-14 0.413E+02 -.103E-13   0.320E-14 -.413E+02 -.330E-15   0.000E+00 0.694E-02 0.000E+00   -.360E-15 -.931E-03 -.190E-18
   -.148E-14 0.206E+02 -.171E-13   -.617E-14 -.206E+02 -.526E-17   0.000E+00 -.672E-02 0.000E+00   0.735E-15 -.478E-03 0.228E-18
   -.134E-14 -.206E+02 -.304E-13   0.320E-14 0.206E+02 -.330E-15   0.000E+00 0.672E-02 0.000E+00   0.334E-15 0.478E-03 -.189E-18
   0.895E-14 -.413E+02 -.698E-14   -.617E-14 0.413E+02 -.378E-17   0.000E+00 -.694E-02 0.000E+00   0.298E-15 0.931E-03 0.190E-18
   0.788E-14 -.825E+02 -.121E-13   0.321E-14 0.825E+02 -.329E-15   0.000E+00 0.703E-02 0.000E+00   -.274E-15 0.174E-02 0.150E-18
   -.186E-14 -.103E+03 -.203E-13   -.615E-14 0.103E+03 -.626E-17   0.000E+00 -.858E-02 0.000E+00   0.776E-15 0.207E-02 0.813E-19
   -.151E-14 -.144E+03 0.106E-13   0.322E-14 0.144E+03 -.328E-15   0.000E+00 0.710E-02 0.000E+00   0.798E-15 0.254E-02 -.479E-18
   0.990E-14 -.165E+03 0.745E-14   -.608E-14 0.165E+03 -.349E-19   0.000E+00 -.133E-01 0.000E+00   -.151E-15 0.275E-02 0.331E-18
   0.590E-14 -.206E+03 -.153E-14   0.319E-14 0.206E+03 -.358E-15   0.000E+00 0.576E-02 0.000E+00   0.295E-15 0.302E-02 0.343E-18
   -.778E-15 -.227E+03 0.306E-13   -.603E-14 0.227E+03 0.374E-16   0.000E+00 -.254E-01 0.000E+00   0.608E-16 0.324E-02 0.147E-18
   -.108E-14 -.268E+03 -.246E-14   0.252E-14 0.268E+03 -.350E-15   0.000E+00 -.467E-03 0.000E+00   0.584E-16 0.381E-02 -.955E-19
   0.905E-14 -.289E+03 0.666E-13   -.567E-14 0.289E+03 0.404E-16   0.000E+00 -.550E-01 0.000E+00   0.137E-15 0.430E-02 0.212E-18
   0.139E-13 -.330E+03 -.355E-13   0.651E-15 0.330E+03 -.797E-15   0.000E+00 -.193E-01 0.000E+00   -.157E-15 0.566E-02 0.450E-19
   -.354E-15 -.351E+03 0.502E-13   -.255E-14 0.351E+03 0.640E-15   0.000E+00 -.136E+00 0.000E+00   0.498E-15 0.662E-02 0.499E-18
   -.103E-14 -.393E+03 -.166E-13   0.181E-14 0.393E+03 -.531E-15   0.000E+00 -.720E-01 0.000E+00   0.515E-15 0.877E-02 -.761E-18
   0.102E-13 -.417E+03 -.266E-13   -.259E-14 0.417E+03 0.179E-15   0.000E+00 -.439E+00 0.000E+00   -.685E-15 0.951E-02 -.209E-18
   0.112E-13 -.471E+03 -.319E-13   -.508E-14 0.472E+03 -.638E-16   0.000E+00 -.820E+00 0.000E+00   -.295E-15 0.958E-02 0.233E-18
   -.501E-15 -.530E+03 0.404E-14   -.165E-15 0.530E+03 -.275E-15   0.000E+00 -.759E+00 0.000E+00   0.218E-15 0.669E-02 -.660E-19
   0.200E-15 0.148E+03 -.386E-14   -.390E-15 -.154E+03 -.606E-16   0.000E+00 0.537E+01 0.000E+00   0.355E-16 -.261E-03 -.853E-19
   0.295E-15 -.148E+03 0.926E-14   -.387E-15 0.154E+03 -.589E-16   0.000E+00 -.537E+01 0.000E+00   -.337E-16 0.261E-03 0.599E-21
 -----------------------------------------------------------------------------------------------
   0.150E-12 -.497E-04 -.186E-12   -.475E-13 0.682E-12 -.535E-14   0.000E+00 -.888E-15 0.000E+00   0.331E-14 -.183E-09 0.509E-19
 
 
 POSITION                                       TOTAL-FORCE (eV/Angst)
 -----------------------------------------------------------------------------------
      0.00000      2.87168      0.00000         0.000000      0.023416      0.000000
      1.23050      3.54095      0.00000         0.000000      0.033460      0.000000
      1.23050      4.97301      0.00000         0.000000      0.435897      0.000000
      0.00000      5.68344      0.00000         0.000000     -0.310805      0.000000
      0.00000      7.10430      0.00000         0.000000      0.212740      0.000000
      1.23050      7.81472      0.00000         0.000000     -0.111972      0.000000
      1.23050      9.23558      0.00000         0.000000      0.096120      0.000000
      0.00000      9.94601      0.00000         0.000000     -0.062109      0.000000
      0.00000     11.36687      0.00000         0.000000      0.056671      0.000000
      1.23050     12.07730      0.00000         0.000000     -0.041783      0.000000
      1.23050     13.49816      0.00000         0.000000      0.039504      0.000000
      0.00000     14.20859      0.00000         0.000000     -0.032392      0.000000
      0.00000     15.62945      0.00000         0.000000      0.031189      0.000000
      1.23050     16.33988      0.00000         0.000000     -0.028003      0.000000
      1.23050     17.76074      0.00000         0.000000      0.027446      0.000000
      0.00000     18.47117      0.00000         0.000000     -0.026535      0.000000
      0.00000     19.89203      0.00000         0.000000      0.026535      0.000000
      1.23050     20.60246      0.00000         0.000000     -0.027446      0.000000
      1.23050     22.02331      0.00000         0.000000      0.028003      0.000000
      0.00000     22.73374      0.00000         0.000000     -0.031189      0.000000
      0.00000     24.15460      0.00000         0.000000      0.032392      0.000000
      1.23050     24.86503      0.00000         0.000000     -0.039504      0.000000
      1.23050     26.28589      0.00000         0.000000      0.041783      0.000000
      0.00000     26.99632      0.00000         0.000000     -0.056671      0.000000
      0.00000     28.41718      0.00000         0.000000      0.062109      0.000000
      1.23050     29.12761      0.00000         0.000000     -0.096120      0.000000
      1.23050     30.54847      0.00000         0.000000      0.111972      0.000000
      0.00000     31.25890      0.00000         0.000000     -0.212740      0.000000
      0.00000     32.67976      0.00000         0.000000      0.310805      0.000000
      1.23050     33.39019      0.00000         0.000000     -0.435897      0.000000
      1.23050     34.82224      0.00000         0.000000     -0.033460      0.000000
      0.00000     35.49152      0.00000         0.000000     -0.023416      0.000000
      0.00000      1.77145      0.00000         0.000000      0.057687      0.000000
      0.00000     36.59174      0.00000         0.000000     -0.057687      0.000000
 -----------------------------------------------------------------------------------
    total drift:                                0.000000     -0.000050      0.000000


--------------------------------------------------------------------------------------------------------



  FREE ENERGIE OF THE ION-ELECTRON SYSTEM (eV)
  ---------------------------------------------------
  free  energy   TOTEN  =      -327.251840 eV

  energy  without entropy=     -327.237006  energy(sigma->0) =     -327.244423
 


--------------------------------------------------------------------------------------------------------


    POTLOK:  cpu time    0.06: real time    0.06


--------------------------------------------------------------------------------------------------------


 writing wavefunctions
     LOOP+:  cpu time  474.06: real time  476.72
    4ORBIT:  cpu time    0.00: real time    0.00
 


 total charge     
 
# of ion     s       p       d       tot
----------------------------------------
  1        0.858   1.782   0.000   2.640
  2        0.858   1.807   0.000   2.665
  3        0.855   1.792   0.000   2.647
  4        0.855   1.800   0.000   2.654
  5        0.855   1.800   0.000   2.654
  6        0.854   1.801   0.000   2.655
  7        0.854   1.800   0.000   2.654
  8        0.854   1.801   0.000   2.655
  9        0.854   1.800   0.000   2.655
 10        0.854   1.801   0.000   2.655
 11        0.854   1.800   0.000   2.655
 12        0.854   1.801   0.000   2.655
 13        0.854   1.800   0.000   2.655
 14        0.854   1.801   0.000   2.655
 15        0.854   1.800   0.000   2.655
 16        0.854   1.801   0.000   2.655
 17        0.854   1.801   0.000   2.655
 18        0.854   1.800   0.000   2.655
 19        0.854   1.801   0.000   2.655
 20        0.854   1.800   0.000   2.655
 21        0.854   1.801   0.000   2.655
 22        0.854   1.800   0.000   2.655
 23        0.854   1.801   0.000   2.655
 24        0.854   1.800   0.000   2.655
 25        0.854   1.801   0.000   2.655
 26        0.854   1.800   0.000   2.654
 27        0.854   1.801   0.000   2.655
 28        0.855   1.800   0.000   2.654
 29        0.855   1.800   0.000   2.654
 30        0.855   1.792   0.000   2.647
 31        0.858   1.807   0.000   2.665
 32        0.858   1.782   0.000   2.640
 33        0.624   0.044   0.000   0.668
 34        0.624   0.044   0.000   0.668
------------------------------------------------
tot       28.600  57.660   0.000  86.260
 

 total amount of memory used by VASP on root node    66585. kBytes
========================================================================

   base      :      30000. kBytes
   nonl-proj :      22880. kBytes
   fftplans  :       3029. kBytes
   grid      :       8504. kBytes
   one-center:        104. kBytes
   wavefun   :       2068. kBytes
 
  
  
 General timing and accounting informations for this job:
 ========================================================
  
                  Total CPU time used (sec):      485.159
                            User time (sec):      481.544
                          System time (sec):        3.615
                         Elapsed time (sec):      491.821
  
                   Maximum memory used (kb):      243860.
                   Average memory used (kb):           0.
  
                          Minor page faults:        40669
                          Major page faults:           38
                 Voluntary context switches:         2831
