 
             +---------------------------------------------------+
             |                                                   |
             |                   WANNIER90                       |
             |                                                   |
             +---------------------------------------------------+
             |                                                   |
             |        Welcome to the Maximally-Localized         |
             |        Generalized Wannier Functions code         |
             |            http://www.wannier.org                 |
             |                                                   |
             |  Wannier90 Authors:                               |
             |    Arash A. Mostofi   (Imperial College London)   |
             |    Jonathan R. Yates  (University of Oxford)      |
             |    Young-Su Lee       (KIST, S. Korea)            |
             |                                                   |
             |  Wannier90 Contributors:                          |
             |    Matthew Shelley    (Imperial College London)   |
             |    Nicolas Poilvert   (MIT)                       |
             |                                                   |
             |  Wannier77 Authors:                               |
             |    Nicola Marzari     (University of Oxford)      |
             |    Ivo Souza          (UC Berkeley)               |
             |    David Vanderbilt   (Rutgers University)        |
             |                                                   |
             |  Please cite                                      |
             |                                                   |
             |  [ref] "Wannier90: A Tool for Obtaining Maximally |
             |         Localised Wannier Functions"              |
             |        A. A. Mostofi, J. R. Yates, Y.-S. Lee,     |
             |        I. Souza, D. Vanderbilt and N. Marzari     |
             |        Comput. Phys. Commun. 178, 685 (2008)      |
             |                                                   |
             |  in any publications arising from the use of      |
             |  this code. For the method please cite            |
             |                                                   |
             |  [ref] "Maximally Localized Generalised Wannier   |
             |         Functions for Composite Energy Bands"     |
             |         N. Marzari and D. Vanderbilt              |
             |         Phys. Rev. B 56 12847 (1997)              |
             |                                                   |
             |  [ref] "Maximally Localized Wannier Functions     |
             |         for Entangled Energy Bands"               |
             |         I. Souza, N. Marzari and D. Vanderbilt    |
             |         Phys. Rev. B 65 035109 (2001)             |
             |                                                   |
             |                                                   |
             | Copyright (c) 1996-2010                           |
             |        A. A. Mostofi, J. R. Yates, Y.-S. Lee,     |
             |        I. Souza, D. Vanderbilt and N. Marzari     |
             |                                                   |
             |        Release: 1.2        24th Jan 2010          |
             |                                                   |
             | This program is free software; you can            |
             | redistribute it and/or modify it under the terms  |
             | of the GNU General Public License as published by |
             | the Free Software Foundation; either version 2 of |
             | the License, or (at your option) any later version|
             |                                                   |
             | This program is distributed in the hope that it   |
             | will be useful, but WITHOUT ANY WARRANTY; without |
             | even the implied warranty of MERCHANTABILITY or   |
             | FITNESS FOR A PARTICULAR PURPOSE. See the GNU     |
             | General Public License for more details.          |
             |                                                   |
             | You should have received a copy of the GNU General|
             | Public License along with this program; if not,   |
             | write to the Free Software Foundation, Inc.,      |
             | 675 Mass Ave, Cambridge, MA 02139, USA.           |
             |                                                   |
             +---------------------------------------------------+
             |    Execution started on 18Sep2012 at 15:14:11     |
             +---------------------------------------------------+
 
                                    ------
                                    SYSTEM
                                    ------
 
                              Lattice Vectors (Ang)
                    a_1     2.461000   0.000000   0.000000
                    a_2     0.000000  39.879757   0.000000
                    a_3     0.000000   0.000000   5.000000
 
                   Unit Cell Volume:     490.72041  (Ang^3)
 
                        Reciprocal-Space Vectors (Ang^-1)
                    b_1     2.553103   0.000000   0.000000
                    b_2     0.000000   0.157553   0.000000
                    b_3     0.000000   0.000000   1.256637
  
 *----------------------------------------------------------------------------*
 |   Site       Fractional Coordinate          Cartesian Coordinate (Ang)     |
 +----------------------------------------------------------------------------+
 | C    1   0.00000   0.07201   0.00000   |    0.00000   2.87168   0.00000    |
 | C    2   0.50000   0.08879   0.00000   |    1.23050   3.54095   0.00000    |
 | C    3   0.50000   0.12470   0.00000   |    1.23050   4.97301   0.00000    |
 | C    4   0.00000   0.14251   0.00000   |    0.00000   5.68344   0.00000    |
 | C    5   0.00000   0.17814   0.00000   |    0.00000   7.10430   0.00000    |
 | C    6   0.50000   0.19596   0.00000   |    1.23050   7.81472   0.00000    |
 | C    7   0.50000   0.23159   0.00000   |    1.23050   9.23558   0.00000    |
 | C    8   0.00000   0.24940   0.00000   |    0.00000   9.94601   0.00000    |
 | C    9   0.00000   0.28503   0.00000   |    0.00000  11.36687   0.00000    |
 | C   10   0.50000   0.30284   0.00000   |    1.23050  12.07730   0.00000    |
 | C   11   0.50000   0.33847   0.00000   |    1.23050  13.49816   0.00000    |
 | C   12   0.00000   0.35629   0.00000   |    0.00000  14.20859   0.00000    |
 | C   13   0.00000   0.39191   0.00000   |    0.00000  15.62945   0.00000    |
 | C   14   0.50000   0.40973   0.00000   |    1.23050  16.33988   0.00000    |
 | C   15   0.50000   0.44536   0.00000   |    1.23050  17.76074   0.00000    |
 | C   16   0.00000   0.46317   0.00000   |    0.00000  18.47117   0.00000    |
 | C   17   0.00000   0.49880   0.00000   |    0.00000  19.89203   0.00000    |
 | C   18   0.50000   0.51661   0.00000   |    1.23050  20.60246   0.00000    |
 | C   19   0.50000   0.55224   0.00000   |    1.23050  22.02331   0.00000    |
 | C   20   0.00000   0.57006   0.00000   |    0.00000  22.73374   0.00000    |
 | C   21   0.00000   0.60569   0.00000   |    0.00000  24.15460   0.00000    |
 | C   22   0.50000   0.62350   0.00000   |    1.23050  24.86503   0.00000    |
 | C   23   0.50000   0.65913   0.00000   |    1.23050  26.28589   0.00000    |
 | C   24   0.00000   0.67694   0.00000   |    0.00000  26.99632   0.00000    |
 | C   25   0.00000   0.71257   0.00000   |    0.00000  28.41718   0.00000    |
 | C   26   0.50000   0.73039   0.00000   |    1.23050  29.12761   0.00000    |
 | C   27   0.50000   0.76601   0.00000   |    1.23050  30.54847   0.00000    |
 | C   28   0.00000   0.78383   0.00000   |    0.00000  31.25890   0.00000    |
 | C   29   0.00000   0.81946   0.00000   |    0.00000  32.67976   0.00000    |
 | C   30   0.50000   0.83727   0.00000   |    1.23050  33.39019   0.00000    |
 | C   31   0.50000   0.87318   0.00000   |    1.23050  34.82224   0.00000    |
 | C   32   0.00000   0.88996   0.00000   |    0.00000  35.49152   0.00000    |
 | H    1   0.00000   0.04442   0.00000   |    0.00000   1.77145   0.00000    |
 | H    2   0.00000   0.91755   0.00000   |    0.00000  36.59174   0.00000    |
 *----------------------------------------------------------------------------*
  
                                ------------
                                K-POINT GRID
                                ------------
  
             Grid size = 19 x  1 x  1      Total points =   19
  
  
 *---------------------------------- MAIN ------------------------------------*
 |  Number of Wannier Functions               :                81             |
 |  Number of input Bloch states              :               127             |
 |  Output verbosity (1=low, 5=high)          :                 1             |
 |  Timing Level (1=low, 5=high)              :                 1             |
 |  Optimisation (0=memory, 3=speed)          :                 3             |
 |  Length Unit                               :               Ang             |
 |  Post-processing setup (write *.nnkp)      :                 F             |
 |  Using Gamma-only branch of algorithms     :                 F             |
 *----------------------------------------------------------------------------*
 *------------------------------- WANNIERISE ---------------------------------*
 |  Total number of iterations                :             10000             |
 |  Number of CG steps before reset           :                 5             |
 |  Trial step length for line search         :             2.000             |
 |  Convergence tolerence                     :         0.100E-10             |
 |  Convergence window                        :                10             |
 |  Iterations between writing output         :                 1             |
 |  Iterations between backing up to disk     :               100             |
 |  Write r^2_nm to file                      :                 F             |
 |  Write xyz WF centres to file              :                 F             |
 |  Use guiding centre to control phases      :                 T             |
 |  Iterations before starting guiding centres:                 0             |
 |  Iterations between using guiding centres  :                 1             |
 *----------------------------------------------------------------------------*
 *------------------------------- DISENTANGLE --------------------------------*
 |  Using band disentanglement                :                 T             |
 |  Total number of iterations                :             10000             |
 |  Mixing ratio                              :             1.000             |
 |  Convergence tolerence                     :         1.000E-10             |
 |  Convergence window                        :                 3             |
 *----------------------------------------------------------------------------*
 *-------------------------------- PLOTTING ----------------------------------*
 |  Plotting interpolated bandstructure       :                 T             |
 |   Number of K-path sections                :                 1             |
 |   Divisions along first K-path section     :               100             |
 |   Output format                            :           gnuplot             |
 |   Output mode                              :               s-k             |
 *----------------------------------------------------------------------------*
 |   K-space path sections:                                                   |
 |    From:  G    0.000  0.000  0.000     To:  X    0.500  0.000  0.000       |
 *----------------------------------------------------------------------------*
 |  Plotting Hamiltonian in WF basis          :                 T             |
 *----------------------------------------------------------------------------*
 Time to read parameters        0.011 (sec)

 *---------------------------------- K-MESH ----------------------------------*
 +----------------------------------------------------------------------------+
 |                    Distance to Nearest-Neighbour Shells                    |
 |                    ------------------------------------                    |
 |          Shell             Distance (Ang^-1)          Multiplicity         |
 |          -----             -----------------          ------------         |
 |             1                   0.134374                      2            |
 |             2                   0.157553                      2            |
 |             3                   0.207073                      4            |
 |             4                   0.268748                      2            |
 |             5                   0.311526                      4            |
 |             6                   0.315106                      2            |
 |             7                   0.342562                      4            |
 |             8                   0.403121                      2            |
 |             9                   0.414147                      4            |
 |            10                   0.432816                      4            |
 |            11                   0.472660                      2            |
 |            12                   0.491389                      4            |
 |            13                   0.511663                      4            |
 |            14                   0.537495                      2            |
 |            15                   0.543721                      4            |
 |            16                   0.560111                      4            |
 |            17                   0.621220                      4            |
 |            18                   0.623052                      4            |
 |            19                   0.630213                      2            |
 |            20                   0.644379                      4            |
 |            21                   0.671869                      2            |
 |            22                   0.685123                      4            |
 |            23                   0.690095                      4            |
 |            24                   0.715757                      4            |
 |            25                   0.742092                      4            |
 |            26                   0.748115                      4            |
 |            27                   0.787766                      2            |
 |            28                   0.799145                      4            |
 |            29                   0.806243                      2            |
 |            30                   0.821471                      4            |
 |            31                   0.821493                      4            |
 |            32                   0.828293                      4            |
 |            33                   0.832347                      4            |
 |            34                   0.865633                      4            |
 |            35                   0.884920                      4            |
 |            36                   0.921182                      4            |
 |            37                   0.934577                      4            |
 |            38                   0.940617                      2            |
 |            39                   0.953665                      4            |
 |            40                   0.953721                      4            |
 |            41                   0.991994                      4            |
 |            42                   1.023326                      4            |
 |            43                   1.035366                      4            |
 |            44                   1.052695                      4            |
 |            45                   1.074991                      2            |
 |            46                   1.086475                      4            |
 |            47                   1.120222                      4            |
 |            48                   1.127210                      4            |
 |            49                   1.132223                      4            |
 |            50                   1.174313                      4            |
 |            51                   1.209364                      2            |
 |            52                   1.219584                      4            |
 |            53                   1.226921                      4            |
 |            54                   1.246103                      4            |
 |            55                   1.249742                      4            |
 |            56                   1.256637                      2            |
 |            57                   1.263801                      4            |
 |            58                   1.266475                      4            |
 |            59                   1.273584                      8            |
 |            60                   1.285053                      4            |
 |            61                   1.294676                      8            |
 |            62                   1.295542                      4            |
 |            63                   1.298449                      4            |
 |            64                   1.302492                      8            |
 |            65                   1.319713                      4            |
 |            66                   1.323123                      8            |
 |            67                   1.329085                      8            |
 |            68                   1.332734                      4            |
 |            69                   1.342589                      4            |
 |            70                   1.343738                      2            |
 |            71                   1.349296                      8            |
 |            72                   1.352943                      4            |
 |            73                   1.356811                      8            |
 |            74                   1.363719                      4            |
 |            75                   1.366762                      4            |
 |            76                   1.369222                      8            |
 |            77                   1.375813                      8            |
 |            78                   1.380190                      4            |
 |            79                   1.401803                      8            |
 |            80                   1.402615                      8            |
 |            81                   1.405811                      4            |
 |            82                   1.412219                      8            |
 |            83                   1.424444                      4            |
 |            84                   1.424972                      4            |
 |            85                   1.431269                      8            |
 |            86                   1.433655                      8            |
 |            87                   1.443308                      4            |
 |            88                   1.446183                      8            |
 |            89                   1.459396                      8            |
 |            90                   1.462468                      8            |
 |            91                   1.478112                      2            |
 |            92                   1.483143                      4            |
 |            93                   1.484184                      4            |
 |            94                   1.486485                      4            |
 |            95                   1.489217                      8            |
 |            96                   1.493039                      4            |
 |            97                   1.501317                      8            |
 |            98                   1.501329                      8            |
 |            99                   1.505060                      8            |
 |           100                   1.507295                      8            |
 +----------------------------------------------------------------------------+
 | The b-vectors are chosen automatically                                     |
 | SVD found small singular value, Rejecting this shell and trying the next   |
 | SVD found small singular value, Rejecting this shell and trying the next   |
 | SVD found small singular value, Rejecting this shell and trying the next   |
 | SVD found small singular value, Rejecting this shell and trying the next   |
 | SVD found small singular value, Rejecting this shell and trying the next   |
 | SVD found small singular value, Rejecting this shell and trying the next   |
 | SVD found small singular value, Rejecting this shell and trying the next   |
 | SVD found small singular value, Rejecting this shell and trying the next   |
 | SVD found small singular value, Rejecting this shell and trying the next   |
 | SVD found small singular value, Rejecting this shell and trying the next   |
 | SVD found small singular value, Rejecting this shell and trying the next   |
 | SVD found small singular value, Rejecting this shell and trying the next   |
 | SVD found small singular value, Rejecting this shell and trying the next   |
 | SVD found small singular value, Rejecting this shell and trying the next   |
 | SVD found small singular value, Rejecting this shell and trying the next   |
 | SVD found small singular value, Rejecting this shell and trying the next   |
 | SVD found small singular value, Rejecting this shell and trying the next   |
 | SVD found small singular value, Rejecting this shell and trying the next   |
 | SVD found small singular value, Rejecting this shell and trying the next   |
 | SVD found small singular value, Rejecting this shell and trying the next   |
 | SVD found small singular value, Rejecting this shell and trying the next   |
 | SVD found small singular value, Rejecting this shell and trying the next   |
 | SVD found small singular value, Rejecting this shell and trying the next   |
 | SVD found small singular value, Rejecting this shell and trying the next   |
 | SVD found small singular value, Rejecting this shell and trying the next   |
 | SVD found small singular value, Rejecting this shell and trying the next   |
 | SVD found small singular value, Rejecting this shell and trying the next   |
 | SVD found small singular value, Rejecting this shell and trying the next   |
 | SVD found small singular value, Rejecting this shell and trying the next   |
 | SVD found small singular value, Rejecting this shell and trying the next   |
 | SVD found small singular value, Rejecting this shell and trying the next   |
 | SVD found small singular value, Rejecting this shell and trying the next   |
 | SVD found small singular value, Rejecting this shell and trying the next   |
 | SVD found small singular value, Rejecting this shell and trying the next   |
 | SVD found small singular value, Rejecting this shell and trying the next   |
 | SVD found small singular value, Rejecting this shell and trying the next   |
 | SVD found small singular value, Rejecting this shell and trying the next   |
 | SVD found small singular value, Rejecting this shell and trying the next   |
 | SVD found small singular value, Rejecting this shell and trying the next   |
 | SVD found small singular value, Rejecting this shell and trying the next   |
 | SVD found small singular value, Rejecting this shell and trying the next   |
 | The following shells are used:   1,  2, 56                                 |
 +----------------------------------------------------------------------------+
 |                        Shell   # Nearest-Neighbours                        |
 |                        -----   --------------------                        |
 |                          1               2                                 |
 |                          2               2                                 |
 |                         56               2                                 |
 +----------------------------------------------------------------------------+
 | Completeness relation is fully satisfied [Eq. (B1), PRB 56, 12847 (1997)]  |
 +----------------------------------------------------------------------------+
 |                  b_k Vectors (Ang^-1) and Weights (Ang^2)                  |
 |                  ----------------------------------------                  |
 |            No.         b_k(x)      b_k(y)      b_k(z)        w_b           |
 |            ---        --------------------------------     --------        |
 |             1         0.134374    0.000000    0.000000    27.691131        |
 |             2        -0.134374    0.000000    0.000000    27.691131        |
 |             3         0.000000    0.157553    0.000000    20.142589        |
 |             4         0.000000   -0.157553    0.000000    20.142589        |
 |             5         0.000000    0.000000    1.256637     0.316629        |
 |             6         0.000000    0.000000   -1.256637     0.316629        |
 +----------------------------------------------------------------------------+
 |                           b_k Directions (Ang^-1)                          |
 |                           -----------------------                          |
 |            No.           x           y           z                         |
 |            ---        --------------------------------                     |
 |             1         0.134374    0.000000    0.000000                     |
 |             2         0.000000    0.157553    0.000000                     |
 |             3         0.000000    0.000000    1.256637                     |
 +----------------------------------------------------------------------------+
  
 *============================================================================*
 |                              MEMORY ESTIMATE                               |
 |         Maximum RAM allocated during each phase of the calculation         |
 *============================================================================*
 |                        Disentanglement           47.41 Mb                  |
 |                            Wannierise:           34.34 Mb                  |
 *----------------------------------------------------------------------------*
  
 Starting a new Wannier90 calculation ...

 Time to get kmesh              0.106 (sec)

 Reading overlaps from wannier90.mmn    : File generated by VASP: Graphene

 Reading projections from wannier90.amn : File generated by VASP: Graphene

 Time to read overlaps          2.461 (sec)

 *------------------------------- DISENTANGLE --------------------------------*
 +----------------------------------------------------------------------------+
 |                              Energy  Windows                               |
 |                              ---------------                               |
 |                   Outer:  -18.30901  to   12.38813  (eV)                   |
 |                   Inner:  -18.30901  to    3.00000  (eV)                   |
 +----------------------------------------------------------------------------+
   Number of target bands to extract:   81

                   Unitarised projection of Wannier functions                  
                   ------------------------------------------                  
   A_mn = <psi_m|g_n> --> S = A.A^+ --> U = S^-1/2.A
   In dis_project... done
   Using an inner window (linner = T)
   In dis_proj_froz... done

                   Extraction of optimally-connected subspace                  
                   ------------------------------------------                  
 +---------------------------------------------------------------------+<-- DIS
 |  Iter     Omega_I(i-1)      Omega_I(i)      Delta (frac.)    Time   |<-- DIS
 +---------------------------------------------------------------------+<-- DIS
       1      47.13446981      47.10660076       5.916E-04      4.41    <-- DIS
       2      47.10038499      47.08530031       3.204E-04      5.14    <-- DIS
       3      47.08147100      47.07176716       2.061E-04      5.86    <-- DIS
       4      47.06923689      47.06268860       1.391E-04      6.58    <-- DIS
       5      47.06095715      47.05642000       9.642E-05      7.31    <-- DIS
       6      47.05520880      47.05201006       6.798E-05      8.03    <-- DIS
       7      47.05114996      47.04886711       4.852E-05      8.75    <-- DIS
       8      47.04824973      47.04660584       3.494E-05      9.47    <-- DIS
       9      47.04615908      47.04496716       2.534E-05     10.20    <-- DIS
      10      47.04464181      47.04377287       1.847E-05     10.92    <-- DIS
      11      47.04353471      47.04289838       1.353E-05     11.65    <-- DIS
      12      47.04272327      47.04225551       9.943E-06     12.39    <-- DIS
      13      47.04212626      47.04178127       7.334E-06     13.12    <-- DIS
      14      47.04168552      47.04143033       5.425E-06     13.85    <-- DIS
      15      47.04135917      47.04116989       4.024E-06     14.58    <-- DIS
      16      47.04111683      47.04097610       2.992E-06     15.31    <-- DIS
      17      47.04093641      47.04083153       2.230E-06     16.05    <-- DIS
      18      47.04080174      47.04072341       1.665E-06     16.78    <-- DIS
      19      47.04070098      47.04064235       1.246E-06     17.52    <-- DIS
      20      47.04062540      47.04058144       9.346E-07     18.25    <-- DIS
      21      47.04056858      47.04053555       7.023E-07     18.98    <-- DIS
      22      47.04052576      47.04050089       5.287E-07     19.71    <-- DIS
      23      47.04049340      47.04047464       3.987E-07     20.44    <-- DIS
      24      47.04046888      47.04045471       3.013E-07     21.18    <-- DIS
      25      47.04045025      47.04043952       2.281E-07     21.91    <-- DIS
      26      47.04043606      47.04042792       1.730E-07     22.64    <-- DIS
      27      47.04042520      47.04041902       1.315E-07     23.38    <-- DIS
      28      47.04041687      47.04041216       1.001E-07     24.11    <-- DIS
      29      47.04041046      47.04040686       7.641E-08     24.84    <-- DIS
      30      47.04040549      47.04040274       5.841E-08     25.57    <-- DIS
      31      47.04040163      47.04039953       4.475E-08     26.30    <-- DIS
      32      47.04039861      47.04039700       3.435E-08     27.04    <-- DIS
      33      47.04039624      47.04039500       2.641E-08     27.77    <-- DIS
      34      47.04039436      47.04039341       2.034E-08     28.50    <-- DIS
      35      47.04039287      47.04039213       1.569E-08     29.24    <-- DIS
      36      47.04039167      47.04039110       1.212E-08     29.97    <-- DIS
      37      47.04039070      47.04039026       9.366E-09     30.70    <-- DIS
      38      47.04038991      47.04038957       7.237E-09     31.43    <-- DIS
      39      47.04038926      47.04038900       5.586E-09     32.16    <-- DIS
      40      47.04038872      47.04038852       4.301E-09     32.90    <-- DIS
      41      47.04038827      47.04038812       3.298E-09     33.63    <-- DIS
      42      47.04038790      47.04038778       2.513E-09     34.36    <-- DIS
      43      47.04038757      47.04038749       1.895E-09     35.10    <-- DIS
      44      47.04038730      47.04038723       1.407E-09     35.83    <-- DIS
      45      47.04038706      47.04038702       1.021E-09     36.56    <-- DIS
      46      47.04038686      47.04038683       7.142E-10     37.29    <-- DIS
      47      47.04038668      47.04038666       4.699E-10     38.02    <-- DIS
      48      47.04038652      47.04038651       2.748E-10     38.76    <-- DIS
      49      47.04038639      47.04038638       1.187E-10     39.49    <-- DIS
      50      47.04038626      47.04038627      -6.163E-12     40.22    <-- DIS
      51      47.04038616      47.04038616      -1.060E-10     40.96    <-- DIS
      52      47.04038606      47.04038607      -1.858E-10     41.69    <-- DIS
      53      47.04038597      47.04038599      -2.493E-10     42.42    <-- DIS
      54      47.04038590      47.04038591      -2.995E-10     43.15    <-- DIS
      55      47.04038583      47.04038584      -3.389E-10     43.88    <-- DIS
      56      47.04038576      47.04038578      -3.693E-10     44.62    <-- DIS
      57      47.04038571      47.04038573      -3.923E-10     45.35    <-- DIS
      58      47.04038566      47.04038568      -4.092E-10     46.08    <-- DIS
      59      47.04038561      47.04038563      -4.211E-10     46.82    <-- DIS
      60      47.04038557      47.04038559      -4.287E-10     47.55    <-- DIS
      61      47.04038553      47.04038555      -4.328E-10     48.28    <-- DIS
      62      47.04038550      47.04038552      -4.340E-10     49.01    <-- DIS
      63      47.04038547      47.04038549      -4.327E-10     49.75    <-- DIS
      64      47.04038544      47.04038546      -4.293E-10     50.48    <-- DIS
      65      47.04038541      47.04038543      -4.243E-10     51.22    <-- DIS
      66      47.04038539      47.04038541      -4.179E-10     51.95    <-- DIS
      67      47.04038537      47.04038539      -4.103E-10     52.68    <-- DIS
      68      47.04038535      47.04038537      -4.018E-10     53.42    <-- DIS
      69      47.04038534      47.04038535      -3.926E-10     54.15    <-- DIS
      70      47.04038532      47.04038534      -3.827E-10     54.88    <-- DIS
      71      47.04038531      47.04038532      -3.725E-10     55.61    <-- DIS
      72      47.04038529      47.04038531      -3.618E-10     56.34    <-- DIS
      73      47.04038528      47.04038530      -3.510E-10     57.08    <-- DIS
      74      47.04038527      47.04038529      -3.400E-10     57.81    <-- DIS
      75      47.04038526      47.04038528      -3.289E-10     58.55    <-- DIS
      76      47.04038525      47.04038527      -3.178E-10     59.28    <-- DIS
      77      47.04038524      47.04038526      -3.068E-10     60.01    <-- DIS
      78      47.04038524      47.04038525      -2.958E-10     60.74    <-- DIS
      79      47.04038523      47.04038524      -2.850E-10     61.47    <-- DIS
      80      47.04038522      47.04038524      -2.744E-10     62.21    <-- DIS
      81      47.04038522      47.04038523      -2.639E-10     62.94    <-- DIS
      82      47.04038521      47.04038523      -2.536E-10     63.67    <-- DIS
      83      47.04038521      47.04038522      -2.436E-10     64.41    <-- DIS
      84      47.04038521      47.04038522      -2.339E-10     65.14    <-- DIS
      85      47.04038520      47.04038521      -2.243E-10     65.87    <-- DIS
      86      47.04038520      47.04038521      -2.150E-10     66.60    <-- DIS
      87      47.04038519      47.04038520      -2.061E-10     67.33    <-- DIS
      88      47.04038519      47.04038520      -1.974E-10     68.07    <-- DIS
      89      47.04038519      47.04038520      -1.890E-10     68.80    <-- DIS
      90      47.04038519      47.04038520      -1.809E-10     69.53    <-- DIS
      91      47.04038519      47.04038519      -1.730E-10     70.27    <-- DIS
      92      47.04038518      47.04038519      -1.654E-10     71.00    <-- DIS
      93      47.04038518      47.04038519      -1.581E-10     71.73    <-- DIS
      94      47.04038518      47.04038519      -1.511E-10     72.46    <-- DIS
      95      47.04038518      47.04038519      -1.443E-10     73.19    <-- DIS
      96      47.04038518      47.04038518      -1.378E-10     73.93    <-- DIS
      97      47.04038518      47.04038518      -1.315E-10     74.66    <-- DIS
      98      47.04038518      47.04038518      -1.256E-10     75.39    <-- DIS
      99      47.04038517      47.04038518      -1.198E-10     76.13    <-- DIS
     100      47.04038517      47.04038518      -1.143E-10     76.86    <-- DIS
     101      47.04038517      47.04038518      -1.090E-10     77.59    <-- DIS
     102      47.04038517      47.04038518      -1.039E-10     78.33    <-- DIS
     103      47.04038517      47.04038518      -9.903E-11     79.06    <-- DIS
     104      47.04038517      47.04038517      -9.441E-11     79.79    <-- DIS
     105      47.04038517      47.04038517      -8.996E-11     80.52    <-- DIS

             <<<      Delta < 1.000E-10  over  3 iterations     >>>
             <<< Disentanglement convergence criteria satisfied >>>

        Final Omega_I    47.04038517 (Ang^2)

 +----------------------------------------------------------------------------+

 Time to disentangle bands     79.060 (sec)

 Writing checkpoint file wannier90.chk... done

 
 *------------------------------- WANNIERISE ---------------------------------*
 +--------------------------------------------------------------------+<-- CONV
 | Iter  Delta Spread     RMS Gradient      Spread (Ang^2)      Time  |<-- CONV
 +--------------------------------------------------------------------+<-- CONV
 
 ------------------------------------------------------------------------------
 Initial State
  WF centre and spread    1  (  0.000000,  2.782665,  0.000000 )     0.93691604
  WF centre and spread    2  (  1.230500,  3.537357,  0.000000 )     0.88612505
  WF centre and spread    3  (  1.230500,  4.971565,  0.000000 )     0.85990817
  WF centre and spread    4  (  0.000000,  5.682029,  0.000000 )     0.85550554
  WF centre and spread    5  (  0.000000,  7.104035,  0.000000 )     0.84297657
  WF centre and spread    6  (  1.230500,  7.814402,  0.000000 )     0.84044956
  WF centre and spread    7  (  1.230500,  9.235835,  0.000000 )     0.83647170
  WF centre and spread    8  (  0.000000,  9.945904,  0.000000 )     0.83613995
  WF centre and spread    9  (  0.000000, 11.367155,  0.000000 )     0.83474966
  WF centre and spread   10  (  1.230500, 12.077105,  0.000000 )     0.83494581
  WF centre and spread   11  (  1.230500, 13.498414,  0.000000 )     0.83439906
  WF centre and spread   12  (  0.000000, 14.208358,  0.000000 )     0.83461531
  WF centre and spread   13  (  0.000000, 15.629678,  0.000000 )     0.83439060
  WF centre and spread   14  (  1.230500, 16.339634,  0.000000 )     0.83451631
  WF centre and spread   15  (  1.230500, 17.760949,  0.000000 )     0.83443093
  WF centre and spread   16  (  0.000000, 18.470945,  0.000000 )     0.83447131
  WF centre and spread   17  (  0.000000, 19.892249,  0.000000 )     0.83447124
  WF centre and spread   18  (  1.230500, 20.602245,  0.000000 )     0.83443080
  WF centre and spread   19  (  1.230500, 22.023559,  0.000000 )     0.83451613
  WF centre and spread   20  (  0.000000, 22.733515,  0.000000 )     0.83439032
  WF centre and spread   21  (  0.000000, 24.154836,  0.000000 )     0.83461518
  WF centre and spread   22  (  1.230500, 24.864780,  0.000000 )     0.83439872
  WF centre and spread   23  (  1.230500, 26.286089,  0.000000 )     0.83494579
  WF centre and spread   24  (  0.000000, 26.996038,  0.000000 )     0.83474934
  WF centre and spread   25  (  0.000000, 28.417290,  0.000000 )     0.83613999
  WF centre and spread   26  (  1.230500, 29.127358,  0.000000 )     0.83647144
  WF centre and spread   27  (  1.230500, 30.548791,  0.000000 )     0.84044950
  WF centre and spread   28  (  0.000000, 31.259158,  0.000000 )     0.84297622
  WF centre and spread   29  (  0.000000, 32.681164,  0.000000 )     0.85550518
  WF centre and spread   30  (  1.230500, 33.391628,  0.000000 )     0.85990765
  WF centre and spread   31  (  1.230500, 34.825836,  0.000000 )     0.88612444
  WF centre and spread   32  (  0.000000, 35.580528,  0.000000 )     0.93691571
  WF centre and spread   33  (  0.629962,  3.185486,  0.000000 )     0.58097082
  WF centre and spread   34  (  1.230500,  4.257920,  0.000000 )     0.61313895
  WF centre and spread   35  (  1.831038,  3.185486,  0.000000 )     0.58097082
  WF centre and spread   36  (  0.614688,  5.328716,  0.000000 )     0.60483877
  WF centre and spread   37  (  1.846312,  5.328716,  0.000000 )     0.60483877
  WF centre and spread   38  (  0.000000,  6.394239,  0.000000 )     0.60633025
  WF centre and spread   39  (  0.615263,  7.459720,  0.000000 )     0.60584590
  WF centre and spread   40  (  1.230500,  8.525534,  0.000000 )     0.60538311
  WF centre and spread   41  (  1.845737,  7.459720,  0.000000 )     0.60584590
  WF centre and spread   42  (  0.615266,  9.590880,  0.000000 )     0.60574633
  WF centre and spread   43  (  1.845734,  9.590880,  0.000000 )     0.60574633
  WF centre and spread   44  (  0.000000, 10.656619,  0.000000 )     0.60537791
  WF centre and spread   45  (  0.615228, 11.722106,  0.000000 )     0.60575209
  WF centre and spread   46  (  1.230500, 12.787804,  0.000000 )     0.60543991
  WF centre and spread   47  (  1.845772, 11.722106,  0.000000 )     0.60575209
  WF centre and spread   48  (  0.615267, 13.853374,  0.000000 )     0.60576598
  WF centre and spread   49  (  1.845733, 13.853374,  0.000000 )     0.60576598
  WF centre and spread   50  (  0.000000, 14.919049,  0.000000 )     0.60547510
  WF centre and spread   51  (  0.615240, 15.984659,  0.000000 )     0.60577197
  WF centre and spread   52  (  1.230500, 17.050318,  0.000000 )     0.60549019
  WF centre and spread   53  (  1.845760, 15.984659,  0.000000 )     0.60577197
  WF centre and spread   54  (  0.615253, 18.115950,  0.000000 )     0.60577413
  WF centre and spread   55  (  1.845747, 18.115950,  0.000000 )     0.60577413
  WF centre and spread   56  (  0.000000, 19.181597,  0.000000 )     0.60549435
  WF centre and spread   57  (  0.615253, 20.247243,  0.000000 )     0.60577413
  WF centre and spread   58  (  1.230500, 21.312875,  0.000000 )     0.60549021
  WF centre and spread   59  (  1.845747, 20.247243,  0.000000 )     0.60577413
  WF centre and spread   60  (  0.615240, 22.378534,  0.000000 )     0.60577196
  WF centre and spread   61  (  1.845760, 22.378534,  0.000000 )     0.60577196
  WF centre and spread   62  (  0.000000, 23.444145,  0.000000 )     0.60547515
  WF centre and spread   63  (  0.615267, 24.509819,  0.000000 )     0.60576597
  WF centre and spread   64  (  1.230500, 25.575390,  0.000000 )     0.60543997
  WF centre and spread   65  (  1.845733, 24.509819,  0.000000 )     0.60576597
  WF centre and spread   66  (  0.615228, 26.641088,  0.000000 )     0.60575207
  WF centre and spread   67  (  1.845772, 26.641088,  0.000000 )     0.60575207
  WF centre and spread   68  (  0.000000, 27.706575,  0.000000 )     0.60537798
  WF centre and spread   69  (  0.615266, 28.772313,  0.000000 )     0.60574630
  WF centre and spread   70  (  1.230500, 29.837659,  0.000000 )     0.60538318
  WF centre and spread   71  (  1.845734, 28.772313,  0.000000 )     0.60574630
  WF centre and spread   72  (  0.615263, 30.903473,  0.000000 )     0.60584588
  WF centre and spread   73  (  1.845737, 30.903473,  0.000000 )     0.60584588
  WF centre and spread   74  (  0.000000, 31.968955,  0.000000 )     0.60633030
  WF centre and spread   75  (  0.614688, 33.034478,  0.000000 )     0.60483874
  WF centre and spread   76  (  1.230500, 34.105273,  0.000000 )     0.61313898
  WF centre and spread   77  (  1.846312, 33.034478,  0.000000 )     0.60483874
  WF centre and spread   78  (  0.629962, 35.177707,  0.000000 )     0.58097084
  WF centre and spread   79  (  1.831038, 35.177707,  0.000000 )     0.58097084
  WF centre and spread   80  (  0.000000,  2.177594,  0.000000 )     0.81099783
  WF centre and spread   81  (  0.000000, 36.185600,  0.000000 )     0.81099769
  Sum of centres and spreads ( 68.908000,**********,  0.000000 )    57.14464404
 
      0     0.571E+02     0.0000000000       57.1446440400      81.69  <-- CONV
        O_D=      0.0926968 O_OD=     10.0115621 O_TOT=     57.1446440 <-- SPRD
 ------------------------------------------------------------------------------
 Cycle:      1
  WF centre and spread    1  (  0.000000,  2.782648,  0.000000 )     0.93679067
  WF centre and spread    2  (  1.230500,  3.536488,  0.000000 )     0.89021617
  WF centre and spread    3  (  1.230500,  4.971375,  0.000000 )     0.86074416
  WF centre and spread    4  (  0.000000,  5.682016,  0.000000 )     0.85436191
  WF centre and spread    5  (  0.000000,  7.103932,  0.000000 )     0.84272348
  WF centre and spread    6  (  1.230500,  7.814362,  0.000000 )     0.83928929
  WF centre and spread    7  (  1.230500,  9.235802,  0.000000 )     0.83504856
  WF centre and spread    8  (  0.000000,  9.945910,  0.000000 )     0.83430083
  WF centre and spread    9  (  0.000000, 11.367134,  0.000000 )     0.83283055
  WF centre and spread   10  (  1.230500, 12.077115,  0.000000 )     0.83294709
  WF centre and spread   11  (  1.230500, 13.498399,  0.000000 )     0.83210119
  WF centre and spread   12  (  0.000000, 14.208375,  0.000000 )     0.83230862
  WF centre and spread   13  (  0.000000, 15.629663,  0.000000 )     0.83208430
  WF centre and spread   14  (  1.230500, 16.339652,  0.000000 )     0.83220168
  WF centre and spread   15  (  1.230500, 17.760932,  0.000000 )     0.83207360
  WF centre and spread   16  (  0.000000, 18.470961,  0.000000 )     0.83211978
  WF centre and spread   17  (  0.000000, 19.892233,  0.000000 )     0.83211977
  WF centre and spread   18  (  1.230500,-19.277496,  0.000000 )     0.83207351
  WF centre and spread   19  (  1.230500,-17.856215,  0.000000 )     0.83220159
  WF centre and spread   20  (  0.000000,-17.146227,  0.000000 )     0.83208401
  WF centre and spread   21  (  0.000000,-15.724939,  0.000000 )     0.83230848
  WF centre and spread   22  (  1.230500,-15.014963,  0.000000 )     0.83210072
  WF centre and spread   23  (  1.230500,-13.593679,  0.000000 )     0.83294691
  WF centre and spread   24  (  0.000000,-12.883698,  0.000000 )     0.83282991
  WF centre and spread   25  (  0.000000,-11.462474,  0.000000 )     0.83430061
  WF centre and spread   26  (  1.230500,-10.752366,  0.000000 )     0.83504804
  WF centre and spread   27  (  1.230500, -9.330926,  0.000000 )     0.83928906
  WF centre and spread   28  (  0.000000, -8.620496,  0.000000 )     0.84272309
  WF centre and spread   29  (  0.000000, -7.198580,  0.000000 )     0.85436152
  WF centre and spread   30  (  1.230500, -6.487940,  0.000000 )     0.86074373
  WF centre and spread   31  (  1.230500, -5.053052,  0.000000 )     0.89021569
  WF centre and spread   32  (  0.000000, -4.299212,  0.000000 )     0.93679042
  WF centre and spread   33  (  0.629917,  3.186789,  0.000000 )     0.57658256
  WF centre and spread   34  (  1.230500,  4.257961,  0.000000 )     0.61001850
  WF centre and spread   35  (  1.831083,  3.186789,  0.000000 )     0.57658256
  WF centre and spread   36  (  0.614599,  5.328915,  0.000000 )     0.60116436
  WF centre and spread   37  (  1.846401,  5.328915,  0.000000 )     0.60116436
  WF centre and spread   38  (  0.000000,  6.394514,  0.000000 )     0.60258189
  WF centre and spread   39  (  0.615277,  7.459771,  0.000000 )     0.60220947
  WF centre and spread   40  (  1.230500,  8.525545,  0.000000 )     0.60198224
  WF centre and spread   41  (  1.845723,  7.459771,  0.000000 )     0.60220947
  WF centre and spread   42  (  0.615270,  9.590882,  0.000000 )     0.60213889
  WF centre and spread   43  (  1.845730,  9.590882,  0.000000 )     0.60213889
  WF centre and spread   44  (  0.000000, 10.656615,  0.000000 )     0.60183347
  WF centre and spread   45  (  0.615226, 11.722105,  0.000000 )     0.60208431
  WF centre and spread   46  (  1.230500, 12.787803,  0.000000 )     0.60179480
  WF centre and spread   47  (  1.845774, 11.722105,  0.000000 )     0.60208431
  WF centre and spread   48  (  0.615267, 13.853374,  0.000000 )     0.60207181
  WF centre and spread   49  (  1.845733, 13.853374,  0.000000 )     0.60207181
  WF centre and spread   50  (  0.000000, 14.919048,  0.000000 )     0.60180061
  WF centre and spread   51  (  0.615240, 15.984659,  0.000000 )     0.60207092
  WF centre and spread   52  (  1.230500, 17.050318,  0.000000 )     0.60180906
  WF centre and spread   53  (  1.845760, 15.984659,  0.000000 )     0.60207092
  WF centre and spread   54  (  0.615253, 18.115950,  0.000000 )     0.60207173
  WF centre and spread   55  (  1.845747, 18.115950,  0.000000 )     0.60207173
  WF centre and spread   56  (  0.000000, 19.181597,  0.000000 )     0.60181217
  WF centre and spread   57  (  0.615253,-19.632514,  0.000000 )     0.60207172
  WF centre and spread   58  (  1.230500,-18.566882,  0.000000 )     0.60180909
  WF centre and spread   59  (  1.845747,-19.632514,  0.000000 )     0.60207172
  WF centre and spread   60  (  0.615240,-17.501223,  0.000000 )     0.60207091
  WF centre and spread   61  (  1.845760,-17.501223,  0.000000 )     0.60207091
  WF centre and spread   62  (  0.000000,-16.435612,  0.000000 )     0.60180066
  WF centre and spread   63  (  0.615267,-15.369938,  0.000000 )     0.60207180
  WF centre and spread   64  (  1.230500,-14.304367,  0.000000 )     0.60179486
  WF centre and spread   65  (  1.845733,-15.369938,  0.000000 )     0.60207180
  WF centre and spread   66  (  0.615226,-13.238669,  0.000000 )     0.60208429
  WF centre and spread   67  (  1.845774,-13.238669,  0.000000 )     0.60208429
  WF centre and spread   68  (  0.000000,-12.173179,  0.000000 )     0.60183353
  WF centre and spread   69  (  0.615270,-11.107446,  0.000000 )     0.60213886
  WF centre and spread   70  (  1.230500,-10.042109,  0.000000 )     0.60198231
  WF centre and spread   71  (  1.845730,-11.107446,  0.000000 )     0.60213886
  WF centre and spread   72  (  0.615277, -8.976335,  0.000000 )     0.60220945
  WF centre and spread   73  (  1.845723, -8.976335,  0.000000 )     0.60220945
  WF centre and spread   74  (  0.000000, -7.911078,  0.000000 )     0.60258194
  WF centre and spread   75  (  0.614599, -6.845479,  0.000000 )     0.60116434
  WF centre and spread   76  (  1.230500, -5.774525,  0.000000 )     0.61001852
  WF centre and spread   77  (  1.846401, -6.845479,  0.000000 )     0.60116434
  WF centre and spread   78  (  0.629917, -4.703353,  0.000000 )     0.57658258
  WF centre and spread   79  (  1.831083, -4.703353,  0.000000 )     0.57658258
  WF centre and spread   80  (  0.000000,  2.173242,  0.000000 )     0.78843933
  WF centre and spread   81  (  0.000000, -3.689806,  0.000000 )     0.78843921
  Sum of centres and spreads ( 68.908000, -1.601204,  0.000000 )    56.88818709
 
      1    -0.256E+00     1.3136606700       56.8881870891      82.32  <-- CONV
        O_D=      0.0929941 O_OD=      9.7548078 O_TOT=     56.8881871 <-- SPRD
 Delta: O_D=  0.2973252E-03 O_OD= -0.2567543E+00 O_TOT= -0.2564570E+00 <-- DLTA
 ------------------------------------------------------------------------------
 Cycle:      2
  WF centre and spread    1  (  0.000000,  2.782690,  0.000000 )     0.93584645
  WF centre and spread    2  (  1.230500,  3.536415,  0.000000 )     0.88757557
  WF centre and spread    3  (  1.230500,  4.971386,  0.000000 )     0.85858830
  WF centre and spread    4  (  0.000000,  5.682186,  0.000000 )     0.85171593
  WF centre and spread    5  (  0.000000,  7.103960,  0.000000 )     0.84049567
  WF centre and spread    6  (  1.230500,  7.814417,  0.000000 )     0.83767027
  WF centre and spread    7  (  1.230500,  9.235799,  0.000000 )     0.83389272
  WF centre and spread    8  (  0.000000,  9.945928,  0.000000 )     0.83344241
  WF centre and spread    9  (  0.000000, 11.367126,  0.000000 )     0.83190616
  WF centre and spread   10  (  1.230500, 12.077131,  0.000000 )     0.83210856
  WF centre and spread   11  (  1.230500, 13.498388,  0.000000 )     0.83143232
  WF centre and spread   12  (  0.000000, 14.208385,  0.000000 )     0.83168683
  WF centre and spread   13  (  0.000000, 15.629652,  0.000000 )     0.83137283
  WF centre and spread   14  (  1.230500, 16.339661,  0.000000 )     0.83152200
  WF centre and spread   15  (  1.230500, 17.760923,  0.000000 )     0.83143011
  WF centre and spread   16  (  0.000000, 18.470971,  0.000000 )     0.83147964
  WF centre and spread   17  (  0.000000, 19.892223,  0.000000 )     0.83147975
  WF centre and spread   18  (  1.230500,-19.277486,  0.000000 )     0.83143021
  WF centre and spread   19  (  1.230500,-17.856225,  0.000000 )     0.83152229
  WF centre and spread   20  (  0.000000,-17.146216,  0.000000 )     0.83137285
  WF centre and spread   21  (  0.000000,-15.724949,  0.000000 )     0.83168695
  WF centre and spread   22  (  1.230500,-15.014952,  0.000000 )     0.83143190
  WF centre and spread   23  (  1.230500,-13.593695,  0.000000 )     0.83210829
  WF centre and spread   24  (  0.000000,-12.883690,  0.000000 )     0.83190527
  WF centre and spread   25  (  0.000000,-11.462492,  0.000000 )     0.83344186
  WF centre and spread   26  (  1.230500,-10.752363,  0.000000 )     0.83389185
  WF centre and spread   27  (  1.230500, -9.330980,  0.000000 )     0.83766988
  WF centre and spread   28  (  0.000000, -8.620524,  0.000000 )     0.84049513
  WF centre and spread   29  (  0.000000, -7.198750,  0.000000 )     0.85171552
  WF centre and spread   30  (  1.230500, -6.487950,  0.000000 )     0.85858775
  WF centre and spread   31  (  1.230500, -5.052979,  0.000000 )     0.88757500
  WF centre and spread   32  (  0.000000, -4.299254,  0.000000 )     0.93584616
  WF centre and spread   33  (  0.629702,  3.187913,  0.000000 )     0.57489792
  WF centre and spread   34  (  1.230500,  4.257880,  0.000000 )     0.61005209
  WF centre and spread   35  (  1.831298,  3.187913,  0.000000 )     0.57489792
  WF centre and spread   36  (  0.614596,  5.329002,  0.000000 )     0.59977078
  WF centre and spread   37  (  1.846404,  5.329002,  0.000000 )     0.59977078
  WF centre and spread   38  (  0.000000,  6.394534,  0.000000 )     0.60157857
  WF centre and spread   39  (  0.615262,  7.459766,  0.000000 )     0.60065012
  WF centre and spread   40  (  1.230500,  8.525529,  0.000000 )     0.60040290
  WF centre and spread   41  (  1.845738,  7.459766,  0.000000 )     0.60065012
  WF centre and spread   42  (  0.615272,  9.590882,  0.000000 )     0.60035038
  WF centre and spread   43  (  1.845728,  9.590882,  0.000000 )     0.60035038
  WF centre and spread   44  (  0.000000, 10.656616,  0.000000 )     0.60001874
  WF centre and spread   45  (  0.615227, 11.722107,  0.000000 )     0.60026225
  WF centre and spread   46  (  1.230500, 12.787804,  0.000000 )     0.59999506
  WF centre and spread   47  (  1.845773, 11.722107,  0.000000 )     0.60026225
  WF centre and spread   48  (  0.615267, 13.853374,  0.000000 )     0.60026336
  WF centre and spread   49  (  1.845733, 13.853374,  0.000000 )     0.60026336
  WF centre and spread   50  (  0.000000, 14.919049,  0.000000 )     0.60002183
  WF centre and spread   51  (  0.615240, 15.984659,  0.000000 )     0.60026790
  WF centre and spread   52  (  1.230500, 17.050318,  0.000000 )     0.60003488
  WF centre and spread   53  (  1.845760, 15.984659,  0.000000 )     0.60026790
  WF centre and spread   54  (  0.615253, 18.115950,  0.000000 )     0.60026949
  WF centre and spread   55  (  1.845747, 18.115950,  0.000000 )     0.60026949
  WF centre and spread   56  (  0.000000, 19.181597,  0.000000 )     0.60003833
  WF centre and spread   57  (  0.615253,-19.632514,  0.000000 )     0.60026948
  WF centre and spread   58  (  1.230500,-18.566882,  0.000000 )     0.60003491
  WF centre and spread   59  (  1.845747,-19.632514,  0.000000 )     0.60026948
  WF centre and spread   60  (  0.615240,-17.501223,  0.000000 )     0.60026789
  WF centre and spread   61  (  1.845760,-17.501223,  0.000000 )     0.60026789
  WF centre and spread   62  (  0.000000,-16.435612,  0.000000 )     0.60002188
  WF centre and spread   63  (  0.615267,-15.369938,  0.000000 )     0.60026335
  WF centre and spread   64  (  1.230500,-14.304368,  0.000000 )     0.59999512
  WF centre and spread   65  (  1.845733,-15.369938,  0.000000 )     0.60026335
  WF centre and spread   66  (  0.615227,-13.238671,  0.000000 )     0.60026223
  WF centre and spread   67  (  1.845773,-13.238671,  0.000000 )     0.60026223
  WF centre and spread   68  (  0.000000,-12.173180,  0.000000 )     0.60001881
  WF centre and spread   69  (  0.615272,-11.107446,  0.000000 )     0.60035036
  WF centre and spread   70  (  1.230500,-10.042093,  0.000000 )     0.60040297
  WF centre and spread   71  (  1.845728,-11.107446,  0.000000 )     0.60035036
  WF centre and spread   72  (  0.615262, -8.976330,  0.000000 )     0.60065010
  WF centre and spread   73  (  1.845738, -8.976330,  0.000000 )     0.60065010
  WF centre and spread   74  (  0.000000, -7.911098,  0.000000 )     0.60157862
  WF centre and spread   75  (  0.614596, -6.845566,  0.000000 )     0.59977076
  WF centre and spread   76  (  1.230500, -5.774444,  0.000000 )     0.61005211
  WF centre and spread   77  (  1.846404, -6.845566,  0.000000 )     0.59977076
  WF centre and spread   78  (  0.629702, -4.704477,  0.000000 )     0.57489794
  WF centre and spread   79  (  1.831298, -4.704477,  0.000000 )     0.57489794
  WF centre and spread   80  (  0.000000,  2.170192,  0.000000 )     0.77713025
  WF centre and spread   81  (  0.000000, -3.686756,  0.000000 )     0.77713014
  Sum of centres and spreads ( 68.908000, -1.601204,  0.000000 )    56.74976229
 
      2    -0.138E+00     1.6102380814       56.7497622874      82.94  <-- CONV
        O_D=      0.0933042 O_OD=      9.6160729 O_TOT=     56.7497623 <-- SPRD
 Delta: O_D=  0.3101001E-03 O_OD= -0.1387349E+00 O_TOT= -0.1384248E+00 <-- DLTA
 ------------------------------------------------------------------------------
 Cycle:      3
  WF centre and spread    1  (  0.000000,  2.782786,  0.000000 )     0.93420827
  WF centre and spread    2  (  1.230500,  3.536469,  0.000000 )     0.88654130
  WF centre and spread    3  (  1.230500,  4.971408,  0.000000 )     0.85740396
  WF centre and spread    4  (  0.000000,  5.682265,  0.000000 )     0.85050304
  WF centre and spread    5  (  0.000000,  7.103948,  0.000000 )     0.83986924
  WF centre and spread    6  (  1.230500,  7.814426,  0.000000 )     0.83709851
  WF centre and spread    7  (  1.230500,  9.235791,  0.000000 )     0.83342335
  WF centre and spread    8  (  0.000000,  9.945934,  0.000000 )     0.83301021
  WF centre and spread    9  (  0.000000, 11.367120,  0.000000 )     0.83161796
  WF centre and spread   10  (  1.230500, 12.077132,  0.000000 )     0.83189601
  WF centre and spread   11  (  1.230500, 13.498383,  0.000000 )     0.83113226
  WF centre and spread   12  (  0.000000, 14.208388,  0.000000 )     0.83138886
  WF centre and spread   13  (  0.000000, 15.629648,  0.000000 )     0.83113788
  WF centre and spread   14  (  1.230500, 16.339665,  0.000000 )     0.83126148
  WF centre and spread   15  (  1.230500, 17.760918,  0.000000 )     0.83118853
  WF centre and spread   16  (  0.000000, 18.470975,  0.000000 )     0.83121525
  WF centre and spread   17  (  0.000000, 19.892219,  0.000000 )     0.83121528
  WF centre and spread   18  (  1.230500,-19.277482,  0.000000 )     0.83118852
  WF centre and spread   19  (  1.230500,-17.856229,  0.000000 )     0.83126156
  WF centre and spread   20  (  0.000000,-17.146212,  0.000000 )     0.83113778
  WF centre and spread   21  (  0.000000,-15.724952,  0.000000 )     0.83138891
  WF centre and spread   22  (  1.230500,-15.014947,  0.000000 )     0.83113191
  WF centre and spread   23  (  1.230500,-13.593696,  0.000000 )     0.83189587
  WF centre and spread   24  (  0.000000,-12.883684,  0.000000 )     0.83161735
  WF centre and spread   25  (  0.000000,-11.462498,  0.000000 )     0.83300994
  WF centre and spread   26  (  1.230500,-10.752355,  0.000000 )     0.83342278
  WF centre and spread   27  (  1.230500, -9.330990,  0.000000 )     0.83709831
  WF centre and spread   28  (  0.000000, -8.620512,  0.000000 )     0.83986884
  WF centre and spread   29  (  0.000000, -7.198829,  0.000000 )     0.85050270
  WF centre and spread   30  (  1.230500, -6.487972,  0.000000 )     0.85740345
  WF centre and spread   31  (  1.230500, -5.053033,  0.000000 )     0.88654073
  WF centre and spread   32  (  0.000000, -4.299350,  0.000000 )     0.93420796
  WF centre and spread   33  (  0.629461,  3.188801,  0.000000 )     0.57405002
  WF centre and spread   34  (  1.230500,  4.257937,  0.000000 )     0.60966218
  WF centre and spread   35  (  1.831539,  3.188801,  0.000000 )     0.57405002
  WF centre and spread   36  (  0.614616,  5.329051,  0.000000 )     0.59923389
  WF centre and spread   37  (  1.846384,  5.329051,  0.000000 )     0.59923389
  WF centre and spread   38  (  0.000000,  6.394526,  0.000000 )     0.60119721
  WF centre and spread   39  (  0.615260,  7.459767,  0.000000 )     0.59997096
  WF centre and spread   40  (  1.230500,  8.525537,  0.000000 )     0.59959802
  WF centre and spread   41  (  1.845740,  7.459767,  0.000000 )     0.59997096
  WF centre and spread   42  (  0.615270,  9.590887,  0.000000 )     0.59958495
  WF centre and spread   43  (  1.845730,  9.590887,  0.000000 )     0.59958495
  WF centre and spread   44  (  0.000000, 10.656619,  0.000000 )     0.59926994
  WF centre and spread   45  (  0.615227, 11.722107,  0.000000 )     0.59954533
  WF centre and spread   46  (  1.230500, 12.787803,  0.000000 )     0.59930978
  WF centre and spread   47  (  1.845773, 11.722107,  0.000000 )     0.59954533
  WF centre and spread   48  (  0.615267, 13.853374,  0.000000 )     0.59955638
  WF centre and spread   49  (  1.845733, 13.853374,  0.000000 )     0.59955638
  WF centre and spread   50  (  0.000000, 14.919048,  0.000000 )     0.59933868
  WF centre and spread   51  (  0.615240, 15.984659,  0.000000 )     0.59956006
  WF centre and spread   52  (  1.230500, 17.050318,  0.000000 )     0.59935023
  WF centre and spread   53  (  1.845760, 15.984659,  0.000000 )     0.59956006
  WF centre and spread   54  (  0.615253, 18.115950,  0.000000 )     0.59956144
  WF centre and spread   55  (  1.845747, 18.115950,  0.000000 )     0.59956144
  WF centre and spread   56  (  0.000000, 19.181597,  0.000000 )     0.59935357
  WF centre and spread   57  (  0.615253,-19.632514,  0.000000 )     0.59956144
  WF centre and spread   58  (  1.230500,-18.566882,  0.000000 )     0.59935026
  WF centre and spread   59  (  1.845747,-19.632514,  0.000000 )     0.59956144
  WF centre and spread   60  (  0.615240,-17.501223,  0.000000 )     0.59956004
  WF centre and spread   61  (  1.845760,-17.501223,  0.000000 )     0.59956004
  WF centre and spread   62  (  0.000000,-16.435612,  0.000000 )     0.59933873
  WF centre and spread   63  (  0.615267,-15.369938,  0.000000 )     0.59955636
  WF centre and spread   64  (  1.230500,-14.304367,  0.000000 )     0.59930984
  WF centre and spread   65  (  1.845733,-15.369938,  0.000000 )     0.59955636
  WF centre and spread   66  (  0.615227,-13.238671,  0.000000 )     0.59954531
  WF centre and spread   67  (  1.845773,-13.238671,  0.000000 )     0.59954531
  WF centre and spread   68  (  0.000000,-12.173183,  0.000000 )     0.59927001
  WF centre and spread   69  (  0.615270,-11.107451,  0.000000 )     0.59958492
  WF centre and spread   70  (  1.230500,-10.042101,  0.000000 )     0.59959808
  WF centre and spread   71  (  1.845730,-11.107451,  0.000000 )     0.59958492
  WF centre and spread   72  (  0.615260, -8.976331,  0.000000 )     0.59997093
  WF centre and spread   73  (  1.845740, -8.976331,  0.000000 )     0.59997093
  WF centre and spread   74  (  0.000000, -7.911090,  0.000000 )     0.60119727
  WF centre and spread   75  (  0.614616, -6.845615,  0.000000 )     0.59923387
  WF centre and spread   76  (  1.230500, -5.774501,  0.000000 )     0.60966220
  WF centre and spread   77  (  1.846384, -6.845615,  0.000000 )     0.59923387
  WF centre and spread   78  (  0.629461, -4.705365,  0.000000 )     0.57405004
  WF centre and spread   79  (  1.831539, -4.705365,  0.000000 )     0.57405004
  WF centre and spread   80  (  0.000000,  2.168354,  0.000000 )     0.76842925
  WF centre and spread   81  (  0.000000, -3.684918,  0.000000 )     0.76842913
  Sum of centres and spreads ( 68.908000, -1.601204,  0.000000 )    56.68170422
 
      3    -0.681E-01     1.3639323135       56.6817042247      83.57  <-- CONV
        O_D=      0.0934534 O_OD=      9.5478657 O_TOT=     56.6817042 <-- SPRD
 Delta: O_D=  0.1491843E-03 O_OD= -0.6820725E-01 O_TOT= -0.6805806E-01 <-- DLTA
 ------------------------------------------------------------------------------
 Cycle:      4
  WF centre and spread    1  (  0.000000,  2.782830,  0.000000 )     0.93312789
  WF centre and spread    2  (  1.230500,  3.536467,  0.000000 )     0.88624745
  WF centre and spread    3  (  1.230500,  4.971402,  0.000000 )     0.85724587
  WF centre and spread    4  (  0.000000,  5.682293,  0.000000 )     0.84999279
  WF centre and spread    5  (  0.000000,  7.103946,  0.000000 )     0.83963762
  WF centre and spread    6  (  1.230500,  7.814432,  0.000000 )     0.83678761
  WF centre and spread    7  (  1.230500,  9.235794,  0.000000 )     0.83318241
  WF centre and spread    8  (  0.000000,  9.945937,  0.000000 )     0.83278024
  WF centre and spread    9  (  0.000000, 11.367121,  0.000000 )     0.83137535
  WF centre and spread   10  (  1.230500, 12.077134,  0.000000 )     0.83164493
  WF centre and spread   11  (  1.230500, 13.498382,  0.000000 )     0.83102923
  WF centre and spread   12  (  0.000000, 14.208389,  0.000000 )     0.83128387
  WF centre and spread   13  (  0.000000, 15.629647,  0.000000 )     0.83101000
  WF centre and spread   14  (  1.230500, 16.339666,  0.000000 )     0.83112263
  WF centre and spread   15  (  1.230500, 17.760917,  0.000000 )     0.83106431
  WF centre and spread   16  (  0.000000, 18.470976,  0.000000 )     0.83108456
  WF centre and spread   17  (  0.000000, 19.892217,  0.000000 )     0.83108454
  WF centre and spread   18  (  1.230500,-19.277481,  0.000000 )     0.83106424
  WF centre and spread   19  (  1.230500,-17.856230,  0.000000 )     0.83112257
  WF centre and spread   20  (  0.000000,-17.146210,  0.000000 )     0.83100979
  WF centre and spread   21  (  0.000000,-15.724953,  0.000000 )     0.83128381
  WF centre and spread   22  (  1.230500,-15.014946,  0.000000 )     0.83102886
  WF centre and spread   23  (  1.230500,-13.593698,  0.000000 )     0.83164481
  WF centre and spread   24  (  0.000000,-12.883685,  0.000000 )     0.83137490
  WF centre and spread   25  (  0.000000,-11.462501,  0.000000 )     0.83278010
  WF centre and spread   26  (  1.230500,-10.752358,  0.000000 )     0.83318202
  WF centre and spread   27  (  1.230500, -9.330996,  0.000000 )     0.83678750
  WF centre and spread   28  (  0.000000, -8.620510,  0.000000 )     0.83963730
  WF centre and spread   29  (  0.000000, -7.198857,  0.000000 )     0.84999246
  WF centre and spread   30  (  1.230500, -6.487966,  0.000000 )     0.85724539
  WF centre and spread   31  (  1.230500, -5.053031,  0.000000 )     0.88624685
  WF centre and spread   32  (  0.000000, -4.299394,  0.000000 )     0.93312758
  WF centre and spread   33  (  0.629209,  3.189614,  0.000000 )     0.57350424
  WF centre and spread   34  (  1.230500,  4.257998,  0.000000 )     0.60959566
  WF centre and spread   35  (  1.831791,  3.189614,  0.000000 )     0.57350424
  WF centre and spread   36  (  0.614638,  5.329072,  0.000000 )     0.59911368
  WF centre and spread   37  (  1.846362,  5.329072,  0.000000 )     0.59911368
  WF centre and spread   38  (  0.000000,  6.394523,  0.000000 )     0.60100477
  WF centre and spread   39  (  0.615266,  7.459776,  0.000000 )     0.59953420
  WF centre and spread   40  (  1.230500,  8.525549,  0.000000 )     0.59907827
  WF centre and spread   41  (  1.845734,  7.459776,  0.000000 )     0.59953420
  WF centre and spread   42  (  0.615269,  9.590888,  0.000000 )     0.59920983
  WF centre and spread   43  (  1.845731,  9.590888,  0.000000 )     0.59920983
  WF centre and spread   44  (  0.000000, 10.656618,  0.000000 )     0.59893964
  WF centre and spread   45  (  0.615226, 11.722107,  0.000000 )     0.59921222
  WF centre and spread   46  (  1.230500, 12.787803,  0.000000 )     0.59899618
  WF centre and spread   47  (  1.845774, 11.722107,  0.000000 )     0.59921222
  WF centre and spread   48  (  0.615267, 13.853374,  0.000000 )     0.59922273
  WF centre and spread   49  (  1.845733, 13.853374,  0.000000 )     0.59922273
  WF centre and spread   50  (  0.000000, 14.919049,  0.000000 )     0.59902486
  WF centre and spread   51  (  0.615240, 15.984659,  0.000000 )     0.59922720
  WF centre and spread   52  (  1.230500, 17.050318,  0.000000 )     0.59903753
  WF centre and spread   53  (  1.845760, 15.984659,  0.000000 )     0.59922720
  WF centre and spread   54  (  0.615253, 18.115950,  0.000000 )     0.59922877
  WF centre and spread   55  (  1.845747, 18.115950,  0.000000 )     0.59922877
  WF centre and spread   56  (  0.000000, 19.181597,  0.000000 )     0.59904089
  WF centre and spread   57  (  0.615253,-19.632514,  0.000000 )     0.59922876
  WF centre and spread   58  (  1.230500,-18.566882,  0.000000 )     0.59903756
  WF centre and spread   59  (  1.845747,-19.632514,  0.000000 )     0.59922876
  WF centre and spread   60  (  0.615240,-17.501223,  0.000000 )     0.59922719
  WF centre and spread   61  (  1.845760,-17.501223,  0.000000 )     0.59922719
  WF centre and spread   62  (  0.000000,-16.435612,  0.000000 )     0.59902491
  WF centre and spread   63  (  0.615268,-15.369938,  0.000000 )     0.59922271
  WF centre and spread   64  (  1.230500,-14.304367,  0.000000 )     0.59899624
  WF centre and spread   65  (  1.845732,-15.369938,  0.000000 )     0.59922271
  WF centre and spread   66  (  0.615226,-13.238671,  0.000000 )     0.59921220
  WF centre and spread   67  (  1.845774,-13.238671,  0.000000 )     0.59921220
  WF centre and spread   68  (  0.000000,-12.173182,  0.000000 )     0.59893971
  WF centre and spread   69  (  0.615269,-11.107452,  0.000000 )     0.59920981
  WF centre and spread   70  (  1.230500,-10.042113,  0.000000 )     0.59907834
  WF centre and spread   71  (  1.845731,-11.107452,  0.000000 )     0.59920981
  WF centre and spread   72  (  0.615266, -8.976340,  0.000000 )     0.59953418
  WF centre and spread   73  (  1.845734, -8.976340,  0.000000 )     0.59953418
  WF centre and spread   74  (  0.000000, -7.911087,  0.000000 )     0.60100482
  WF centre and spread   75  (  0.614638, -6.845636,  0.000000 )     0.59911365
  WF centre and spread   76  (  1.230500, -5.774562,  0.000000 )     0.60959568
  WF centre and spread   77  (  1.846362, -6.845636,  0.000000 )     0.59911365
  WF centre and spread   78  (  0.629209, -4.706178,  0.000000 )     0.57350426
  WF centre and spread   79  (  1.831791, -4.706178,  0.000000 )     0.57350426
  WF centre and spread   80  (  0.000000,  2.166754,  0.000000 )     0.76178688
  WF centre and spread   81  (  0.000000, -3.683318,  0.000000 )     0.76178676
  Sum of centres and spreads ( 68.908000, -1.601204,  0.000000 )    56.64420943
 
      4    -0.375E-01     0.9961844371       56.6442094289      84.19  <-- CONV
        O_D=      0.0935668 O_OD=      9.5102574 O_TOT=     56.6442094 <-- SPRD
 Delta: O_D=  0.1134179E-03 O_OD= -0.3760821E-01 O_TOT= -0.3749480E-01 <-- DLTA
 ------------------------------------------------------------------------------
 Cycle:      5
  WF centre and spread    1  (  0.000000,  2.782831,  0.000000 )     0.93273215
  WF centre and spread    2  (  1.230500,  3.536440,  0.000000 )     0.88608044
  WF centre and spread    3  (  1.230500,  4.971414,  0.000000 )     0.85711943
  WF centre and spread    4  (  0.000000,  5.682314,  0.000000 )     0.84964574
  WF centre and spread    5  (  0.000000,  7.103956,  0.000000 )     0.83940996
  WF centre and spread    6  (  1.230500,  7.814436,  0.000000 )     0.83662889
  WF centre and spread    7  (  1.230500,  9.235796,  0.000000 )     0.83302160
  WF centre and spread    8  (  0.000000,  9.945937,  0.000000 )     0.83264072
  WF centre and spread    9  (  0.000000, 11.367122,  0.000000 )     0.83129717
  WF centre and spread   10  (  1.230500, 12.077134,  0.000000 )     0.83152370
  WF centre and spread   11  (  1.230500, 13.498382,  0.000000 )     0.83094300
  WF centre and spread   12  (  0.000000, 14.208389,  0.000000 )     0.83118974
  WF centre and spread   13  (  0.000000, 15.629647,  0.000000 )     0.83093453
  WF centre and spread   14  (  1.230500, 16.339666,  0.000000 )     0.83103995
  WF centre and spread   15  (  1.230500, 17.760917,  0.000000 )     0.83096864
  WF centre and spread   16  (  0.000000, 18.470976,  0.000000 )     0.83099392
  WF centre and spread   17  (  0.000000, 19.892217,  0.000000 )     0.83099388
  WF centre and spread   18  (  1.230500,-19.277481,  0.000000 )     0.83096855
  WF centre and spread   19  (  1.230500,-17.856230,  0.000000 )     0.83103984
  WF centre and spread   20  (  0.000000,-17.146211,  0.000000 )     0.83093430
  WF centre and spread   21  (  0.000000,-15.724953,  0.000000 )     0.83118964
  WF centre and spread   22  (  1.230500,-15.014946,  0.000000 )     0.83094264
  WF centre and spread   23  (  1.230500,-13.593698,  0.000000 )     0.83152359
  WF centre and spread   24  (  0.000000,-12.883685,  0.000000 )     0.83129678
  WF centre and spread   25  (  0.000000,-11.462501,  0.000000 )     0.83264065
  WF centre and spread   26  (  1.230500,-10.752360,  0.000000 )     0.83302128
  WF centre and spread   27  (  1.230500, -9.331000,  0.000000 )     0.83662881
  WF centre and spread   28  (  0.000000, -8.620520,  0.000000 )     0.83940966
  WF centre and spread   29  (  0.000000, -7.198878,  0.000000 )     0.84964542
  WF centre and spread   30  (  1.230500, -6.487979,  0.000000 )     0.85711895
  WF centre and spread   31  (  1.230500, -5.053004,  0.000000 )     0.88607982
  WF centre and spread   32  (  0.000000, -4.299395,  0.000000 )     0.93273183
  WF centre and spread   33  (  0.628955,  3.190363,  0.000000 )     0.57327893
  WF centre and spread   34  (  1.230500,  4.258012,  0.000000 )     0.61009610
  WF centre and spread   35  (  1.832045,  3.190363,  0.000000 )     0.57327893
  WF centre and spread   36  (  0.614654,  5.329081,  0.000000 )     0.59913889
  WF centre and spread   37  (  1.846346,  5.329081,  0.000000 )     0.59913889
  WF centre and spread   38  (  0.000000,  6.394538,  0.000000 )     0.60069334
  WF centre and spread   39  (  0.615272,  7.459785,  0.000000 )     0.59923898
  WF centre and spread   40  (  1.230500,  8.525551,  0.000000 )     0.59880859
  WF centre and spread   41  (  1.845728,  7.459785,  0.000000 )     0.59923898
  WF centre and spread   42  (  0.615270,  9.590888,  0.000000 )     0.59903953
  WF centre and spread   43  (  1.845730,  9.590888,  0.000000 )     0.59903953
  WF centre and spread   44  (  0.000000, 10.656617,  0.000000 )     0.59879488
  WF centre and spread   45  (  0.615226, 11.722107,  0.000000 )     0.59904924
  WF centre and spread   46  (  1.230500, 12.787803,  0.000000 )     0.59885071
  WF centre and spread   47  (  1.845774, 11.722107,  0.000000 )     0.59904924
  WF centre and spread   48  (  0.615268, 13.853374,  0.000000 )     0.59906141
  WF centre and spread   49  (  1.845732, 13.853374,  0.000000 )     0.59906141
  WF centre and spread   50  (  0.000000, 14.919048,  0.000000 )     0.59888103
  WF centre and spread   51  (  0.615240, 15.984659,  0.000000 )     0.59906581
  WF centre and spread   52  (  1.230500, 17.050318,  0.000000 )     0.59889312
  WF centre and spread   53  (  1.845760, 15.984659,  0.000000 )     0.59906581
  WF centre and spread   54  (  0.615253, 18.115950,  0.000000 )     0.59906732
  WF centre and spread   55  (  1.845747, 18.115950,  0.000000 )     0.59906732
  WF centre and spread   56  (  0.000000, 19.181597,  0.000000 )     0.59889651
  WF centre and spread   57  (  0.615253,-19.632514,  0.000000 )     0.59906732
  WF centre and spread   58  (  1.230500,-18.566882,  0.000000 )     0.59889315
  WF centre and spread   59  (  1.845747,-19.632514,  0.000000 )     0.59906732
  WF centre and spread   60  (  0.615240,-17.501223,  0.000000 )     0.59906580
  WF centre and spread   61  (  1.845760,-17.501223,  0.000000 )     0.59906580
  WF centre and spread   62  (  0.000000,-16.435612,  0.000000 )     0.59888108
  WF centre and spread   63  (  0.615268,-15.369938,  0.000000 )     0.59906139
  WF centre and spread   64  (  1.230500,-14.304367,  0.000000 )     0.59885077
  WF centre and spread   65  (  1.845732,-15.369938,  0.000000 )     0.59906139
  WF centre and spread   66  (  0.615226,-13.238671,  0.000000 )     0.59904922
  WF centre and spread   67  (  1.845774,-13.238671,  0.000000 )     0.59904922
  WF centre and spread   68  (  0.000000,-12.173181,  0.000000 )     0.59879495
  WF centre and spread   69  (  0.615270,-11.107452,  0.000000 )     0.59903951
  WF centre and spread   70  (  1.230500,-10.042115,  0.000000 )     0.59880866
  WF centre and spread   71  (  1.845730,-11.107452,  0.000000 )     0.59903951
  WF centre and spread   72  (  0.615272, -8.976349,  0.000000 )     0.59923896
  WF centre and spread   73  (  1.845728, -8.976349,  0.000000 )     0.59923896
  WF centre and spread   74  (  0.000000, -7.911102,  0.000000 )     0.60069339
  WF centre and spread   75  (  0.614654, -6.845645,  0.000000 )     0.59913886
  WF centre and spread   76  (  1.230500, -5.774576,  0.000000 )     0.61009612
  WF centre and spread   77  (  1.846346, -6.845645,  0.000000 )     0.59913886
  WF centre and spread   78  (  0.628955, -4.706927,  0.000000 )     0.57327895
  WF centre and spread   79  (  1.832045, -4.706927,  0.000000 )     0.57327895
  WF centre and spread   80  (  0.000000,  2.165214,  0.000000 )     0.75707211
  WF centre and spread   81  (  0.000000, -3.681778,  0.000000 )     0.75707199
  Sum of centres and spreads ( 68.908000, -1.601204,  0.000000 )    56.62317200
 
      5    -0.210E-01     0.7410901196       56.6231720047      84.82  <-- CONV
        O_D=      0.0936656 O_OD=      9.4891212 O_TOT=     56.6231720 <-- SPRD
 Delta: O_D=  0.9880692E-04 O_OD= -0.2113623E-01 O_TOT= -0.2103742E-01 <-- DLTA
 ------------------------------------------------------------------------------
 Cycle:      6
  WF centre and spread    1  (  0.000000,  2.782821,  0.000000 )     0.93256128
  WF centre and spread    2  (  1.230500,  3.536405,  0.000000 )     0.88605586
  WF centre and spread    3  (  1.230500,  4.971439,  0.000000 )     0.85691016
  WF centre and spread    4  (  0.000000,  5.682333,  0.000000 )     0.84943597
  WF centre and spread    5  (  0.000000,  7.103958,  0.000000 )     0.83932689
  WF centre and spread    6  (  1.230500,  7.814434,  0.000000 )     0.83657129
  WF centre and spread    7  (  1.230500,  9.235797,  0.000000 )     0.83294628
  WF centre and spread    8  (  0.000000,  9.945936,  0.000000 )     0.83255171
  WF centre and spread    9  (  0.000000, 11.367123,  0.000000 )     0.83121905
  WF centre and spread   10  (  1.230500, 12.077133,  0.000000 )     0.83142715
  WF centre and spread   11  (  1.230500, 13.498383,  0.000000 )     0.83086837
[...]
  WF centre and spread   30  (  1.230500, -6.488050,  0.000000 )     0.85518801
  WF centre and spread   31  (  1.230500, -5.052709,  0.000000 )     0.89026369
  WF centre and spread   32  (  0.000000, -4.299504,  0.000000 )     0.92924706
  WF centre and spread   33  (  0.617020,  3.207199,  0.000000 )     0.58873583
  WF centre and spread   34  (  1.230500,  4.256866,  0.000000 )     0.61762230
  WF centre and spread   35  (  1.843980,  3.207199,  0.000000 )     0.58873583
  WF centre and spread   36  (  0.614817,  5.329200,  0.000000 )     0.59902090
  WF centre and spread   37  (  1.846183,  5.329200,  0.000000 )     0.59902090
  WF centre and spread   38  (  0.000000,  6.394471,  0.000000 )     0.60012805
  WF centre and spread   39  (  0.615230,  7.459814,  0.000000 )     0.59886855
  WF centre and spread   40  (  1.230500,  8.525514,  0.000000 )     0.59901768
  WF centre and spread   41  (  1.845770,  7.459814,  0.000000 )     0.59886855
  WF centre and spread   42  (  0.615289,  9.590900,  0.000000 )     0.59879093
  WF centre and spread   43  (  1.845711,  9.590900,  0.000000 )     0.59879093
  WF centre and spread   44  (  0.000000, 10.656605,  0.000000 )     0.59899441
  WF centre and spread   45  (  0.615219, 11.722111,  0.000000 )     0.59879738
  WF centre and spread   46  (  1.230500, 12.787799,  0.000000 )     0.59903737
  WF centre and spread   47  (  1.845781, 11.722111,  0.000000 )     0.59879738
  WF centre and spread   48  (  0.615270, 13.853375,  0.000000 )     0.59880777
  WF centre and spread   49  (  1.845730, 13.853375,  0.000000 )     0.59880777
  WF centre and spread   50  (  0.000000, 14.919048,  0.000000 )     0.59906158
  WF centre and spread   51  (  0.615239, 15.984659,  0.000000 )     0.59881204
  WF centre and spread   52  (  1.230500, 17.050318,  0.000000 )     0.59907206
  WF centre and spread   53  (  1.845761, 15.984659,  0.000000 )     0.59881204
  WF centre and spread   54  (  0.615253, 18.115950,  0.000000 )     0.59881356
  WF centre and spread   55  (  1.845747, 18.115950,  0.000000 )     0.59881356
  WF centre and spread   56  (  0.000000, 19.181597,  0.000000 )     0.59907498
  WF centre and spread   57  (  0.615253,-19.632514,  0.000000 )     0.59881356
  WF centre and spread   58  (  1.230500,-18.566882,  0.000000 )     0.59907209
  WF centre and spread   59  (  1.845747,-19.632514,  0.000000 )     0.59881356
  WF centre and spread   60  (  0.615239,-17.501223,  0.000000 )     0.59881203
  WF centre and spread   61  (  1.845761,-17.501223,  0.000000 )     0.59881203
  WF centre and spread   62  (  0.000000,-16.435611,  0.000000 )     0.59906163
  WF centre and spread   63  (  0.615270,-15.369939,  0.000000 )     0.59880775
  WF centre and spread   64  (  1.230500,-14.304363,  0.000000 )     0.59903743
  WF centre and spread   65  (  1.845730,-15.369939,  0.000000 )     0.59880775
  WF centre and spread   66  (  0.615219,-13.238675,  0.000000 )     0.59879736
  WF centre and spread   67  (  1.845781,-13.238675,  0.000000 )     0.59879736
  WF centre and spread   68  (  0.000000,-12.173169,  0.000000 )     0.59899448
  WF centre and spread   69  (  0.615289,-11.107464,  0.000000 )     0.59879092
  WF centre and spread   70  (  1.230500,-10.042078,  0.000000 )     0.59901775
  WF centre and spread   71  (  1.845711,-11.107464,  0.000000 )     0.59879092
  WF centre and spread   72  (  0.615230, -8.976378,  0.000000 )     0.59886853
  WF centre and spread   73  (  1.845770, -8.976378,  0.000000 )     0.59886853
  WF centre and spread   74  (  0.000000, -7.911035,  0.000000 )     0.60012811
  WF centre and spread   75  (  0.614817, -6.845764,  0.000000 )     0.59902088
  WF centre and spread   76  (  1.230500, -5.773430,  0.000000 )     0.61762232
  WF centre and spread   77  (  1.846183, -6.845764,  0.000000 )     0.59902088
  WF centre and spread   78  (  0.617020, -4.723763,  0.000000 )     0.58873582
  WF centre and spread   79  (  1.843980, -4.723763,  0.000000 )     0.58873582
  WF centre and spread   80  (  0.000000,  2.133152,  0.000000 )     0.67176119
  WF centre and spread   81  (  0.000000, -3.649716,  0.000000 )     0.67176108
  Sum of centres and spreads ( 68.908000, -1.601204,  0.000000 )    56.51068578
 
    238    -0.141E-11     0.0000066703       56.5106857815     231.02  <-- CONV
        O_D=      0.0931238 O_OD=      9.3771768 O_TOT=     56.5106858 <-- SPRD
 Delta: O_D= -0.1278611E-09 O_OD=  0.1264500E-09 O_TOT= -0.1413980E-11 <-- DLTA
 ------------------------------------------------------------------------------
 Cycle:    239
  WF centre and spread    1  (  0.000000,  2.782939,  0.000000 )     0.92924742
  WF centre and spread    2  (  1.230500,  3.536145,  0.000000 )     0.89026437
  WF centre and spread    3  (  1.230500,  4.971486,  0.000000 )     0.85518844
  WF centre and spread    4  (  0.000000,  5.682401,  0.000000 )     0.84858096
  WF centre and spread    5  (  0.000000,  7.103965,  0.000000 )     0.83913792
  WF centre and spread    6  (  1.230500,  7.814434,  0.000000 )     0.83601624
  WF centre and spread    7  (  1.230500,  9.235802,  0.000000 )     0.83275488
  WF centre and spread    8  (  0.000000,  9.945933,  0.000000 )     0.83219715
  WF centre and spread    9  (  0.000000, 11.367128,  0.000000 )     0.83103415
  WF centre and spread   10  (  1.230500, 12.077128,  0.000000 )     0.83112812
  WF centre and spread   11  (  1.230500, 13.498388,  0.000000 )     0.83067856
  WF centre and spread   12  (  0.000000, 14.208383,  0.000000 )     0.83083025
  WF centre and spread   13  (  0.000000, 15.629652,  0.000000 )     0.83064501
  WF centre and spread   14  (  1.230500, 16.339660,  0.000000 )     0.83074271
  WF centre and spread   15  (  1.230500, 17.760923,  0.000000 )     0.83067077
  WF centre and spread   16  (  0.000000, 18.470970,  0.000000 )     0.83070175
  WF centre and spread   17  (  0.000000, 19.892223,  0.000000 )     0.83070170
  WF centre and spread   18  (  1.230500,-19.277487,  0.000000 )     0.83067064
  WF centre and spread   19  (  1.230500,-17.856224,  0.000000 )     0.83074254
  WF centre and spread   20  (  0.000000,-17.146216,  0.000000 )     0.83064475
  WF centre and spread   21  (  0.000000,-15.724947,  0.000000 )     0.83083008
  WF centre and spread   22  (  1.230500,-15.014952,  0.000000 )     0.83067829
  WF centre and spread   23  (  1.230500,-13.593692,  0.000000 )     0.83112803
  WF centre and spread   24  (  0.000000,-12.883692,  0.000000 )     0.83103393
  WF centre and spread   25  (  0.000000,-11.462497,  0.000000 )     0.83219712
  WF centre and spread   26  (  1.230500,-10.752366,  0.000000 )     0.83275471
  WF centre and spread   27  (  1.230500, -9.330998,  0.000000 )     0.83601612
  WF centre and spread   28  (  0.000000, -8.620529,  0.000000 )     0.83913766
  WF centre and spread   29  (  0.000000, -7.198965,  0.000000 )     0.84858060
  WF centre and spread   30  (  1.230500, -6.488050,  0.000000 )     0.85518801
  WF centre and spread   31  (  1.230500, -5.052709,  0.000000 )     0.89026369
  WF centre and spread   32  (  0.000000, -4.299504,  0.000000 )     0.92924706
  WF centre and spread   33  (  0.617020,  3.207199,  0.000000 )     0.58873584
  WF centre and spread   34  (  1.230500,  4.256866,  0.000000 )     0.61762231
  WF centre and spread   35  (  1.843980,  3.207199,  0.000000 )     0.58873584
  WF centre and spread   36  (  0.614817,  5.329200,  0.000000 )     0.59902090
  WF centre and spread   37  (  1.846183,  5.329200,  0.000000 )     0.59902090
  WF centre and spread   38  (  0.000000,  6.394471,  0.000000 )     0.60012805
  WF centre and spread   39  (  0.615230,  7.459814,  0.000000 )     0.59886855
  WF centre and spread   40  (  1.230500,  8.525514,  0.000000 )     0.59901768
  WF centre and spread   41  (  1.845770,  7.459814,  0.000000 )     0.59886855
  WF centre and spread   42  (  0.615289,  9.590900,  0.000000 )     0.59879093
  WF centre and spread   43  (  1.845711,  9.590900,  0.000000 )     0.59879093
  WF centre and spread   44  (  0.000000, 10.656605,  0.000000 )     0.59899441
  WF centre and spread   45  (  0.615219, 11.722111,  0.000000 )     0.59879738
  WF centre and spread   46  (  1.230500, 12.787799,  0.000000 )     0.59903737
  WF centre and spread   47  (  1.845781, 11.722111,  0.000000 )     0.59879738
  WF centre and spread   48  (  0.615270, 13.853375,  0.000000 )     0.59880777
  WF centre and spread   49  (  1.845730, 13.853375,  0.000000 )     0.59880777
  WF centre and spread   50  (  0.000000, 14.919048,  0.000000 )     0.59906158
  WF centre and spread   51  (  0.615239, 15.984659,  0.000000 )     0.59881204
  WF centre and spread   52  (  1.230500, 17.050318,  0.000000 )     0.59907206
  WF centre and spread   53  (  1.845761, 15.984659,  0.000000 )     0.59881204
  WF centre and spread   54  (  0.615253, 18.115950,  0.000000 )     0.59881356
  WF centre and spread   55  (  1.845747, 18.115950,  0.000000 )     0.59881356
  WF centre and spread   56  (  0.000000, 19.181597,  0.000000 )     0.59907498
  WF centre and spread   57  (  0.615253,-19.632514,  0.000000 )     0.59881356
  WF centre and spread   58  (  1.230500,-18.566882,  0.000000 )     0.59907209
  WF centre and spread   59  (  1.845747,-19.632514,  0.000000 )     0.59881356
  WF centre and spread   60  (  0.615239,-17.501223,  0.000000 )     0.59881203
  WF centre and spread   61  (  1.845761,-17.501223,  0.000000 )     0.59881203
  WF centre and spread   62  (  0.000000,-16.435611,  0.000000 )     0.59906163
  WF centre and spread   63  (  0.615270,-15.369939,  0.000000 )     0.59880775
  WF centre and spread   64  (  1.230500,-14.304363,  0.000000 )     0.59903743
  WF centre and spread   65  (  1.845730,-15.369939,  0.000000 )     0.59880775
  WF centre and spread   66  (  0.615219,-13.238675,  0.000000 )     0.59879736
  WF centre and spread   67  (  1.845781,-13.238675,  0.000000 )     0.59879736
  WF centre and spread   68  (  0.000000,-12.173169,  0.000000 )     0.59899448
  WF centre and spread   69  (  0.615289,-11.107464,  0.000000 )     0.59879092
  WF centre and spread   70  (  1.230500,-10.042078,  0.000000 )     0.59901775
  WF centre and spread   71  (  1.845711,-11.107464,  0.000000 )     0.59879092
  WF centre and spread   72  (  0.615230, -8.976378,  0.000000 )     0.59886853
  WF centre and spread   73  (  1.845770, -8.976378,  0.000000 )     0.59886853
  WF centre and spread   74  (  0.000000, -7.911035,  0.000000 )     0.60012811
  WF centre and spread   75  (  0.614817, -6.845764,  0.000000 )     0.59902088
  WF centre and spread   76  (  1.230500, -5.773430,  0.000000 )     0.61762233
  WF centre and spread   77  (  1.846183, -6.845764,  0.000000 )     0.59902088
  WF centre and spread   78  (  0.617020, -4.723763,  0.000000 )     0.58873583
  WF centre and spread   79  (  1.843980, -4.723763,  0.000000 )     0.58873583
  WF centre and spread   80  (  0.000000,  2.133152,  0.000000 )     0.67176115
  WF centre and spread   81  (  0.000000, -3.649716,  0.000000 )     0.67176105
  Sum of centres and spreads ( 68.908000, -1.601204,  0.000000 )    56.51068578
 
    239    -0.335E-11     0.0000066031       56.5106857815     231.66  <-- CONV
        O_D=      0.0931238 O_OD=      9.3771768 O_TOT=     56.5106858 <-- SPRD
 Delta: O_D= -0.5061484E-09 O_OD=  0.5028014E-09 O_TOT= -0.3346656E-11 <-- DLTA
 ------------------------------------------------------------------------------

             <<<     Delta < 1.000E-11  over 10 iterations     >>>
             <<< Wannierisation convergence criteria satisfied >>>

 Final State
  WF centre and spread    1  (  0.000000,  2.782939,  0.000000 )     0.92924742
  WF centre and spread    2  (  1.230500,  3.536145,  0.000000 )     0.89026437
  WF centre and spread    3  (  1.230500,  4.971486,  0.000000 )     0.85518844
  WF centre and spread    4  (  0.000000,  5.682401,  0.000000 )     0.84858096
  WF centre and spread    5  (  0.000000,  7.103965,  0.000000 )     0.83913792
  WF centre and spread    6  (  1.230500,  7.814434,  0.000000 )     0.83601624
  WF centre and spread    7  (  1.230500,  9.235802,  0.000000 )     0.83275488
  WF centre and spread    8  (  0.000000,  9.945933,  0.000000 )     0.83219715
  WF centre and spread    9  (  0.000000, 11.367128,  0.000000 )     0.83103415
  WF centre and spread   10  (  1.230500, 12.077128,  0.000000 )     0.83112812
  WF centre and spread   11  (  1.230500, 13.498388,  0.000000 )     0.83067856
  WF centre and spread   12  (  0.000000, 14.208383,  0.000000 )     0.83083025
  WF centre and spread   13  (  0.000000, 15.629652,  0.000000 )     0.83064501
  WF centre and spread   14  (  1.230500, 16.339660,  0.000000 )     0.83074271
  WF centre and spread   15  (  1.230500, 17.760923,  0.000000 )     0.83067077
  WF centre and spread   16  (  0.000000, 18.470970,  0.000000 )     0.83070175
  WF centre and spread   17  (  0.000000, 19.892223,  0.000000 )     0.83070170
  WF centre and spread   18  (  1.230500,-19.277487,  0.000000 )     0.83067064
  WF centre and spread   19  (  1.230500,-17.856224,  0.000000 )     0.83074254
  WF centre and spread   20  (  0.000000,-17.146216,  0.000000 )     0.83064475
  WF centre and spread   21  (  0.000000,-15.724947,  0.000000 )     0.83083008
  WF centre and spread   22  (  1.230500,-15.014952,  0.000000 )     0.83067829
  WF centre and spread   23  (  1.230500,-13.593692,  0.000000 )     0.83112803
  WF centre and spread   24  (  0.000000,-12.883692,  0.000000 )     0.83103393
  WF centre and spread   25  (  0.000000,-11.462497,  0.000000 )     0.83219712
  WF centre and spread   26  (  1.230500,-10.752366,  0.000000 )     0.83275471
  WF centre and spread   27  (  1.230500, -9.330998,  0.000000 )     0.83601612
  WF centre and spread   28  (  0.000000, -8.620529,  0.000000 )     0.83913766
  WF centre and spread   29  (  0.000000, -7.198965,  0.000000 )     0.84858060
  WF centre and spread   30  (  1.230500, -6.488050,  0.000000 )     0.85518801
  WF centre and spread   31  (  1.230500, -5.052709,  0.000000 )     0.89026369
  WF centre and spread   32  (  0.000000, -4.299504,  0.000000 )     0.92924706
  WF centre and spread   33  (  0.617020,  3.207199,  0.000000 )     0.58873584
  WF centre and spread   34  (  1.230500,  4.256866,  0.000000 )     0.61762231
  WF centre and spread   35  (  1.843980,  3.207199,  0.000000 )     0.58873584
  WF centre and spread   36  (  0.614817,  5.329200,  0.000000 )     0.59902090
  WF centre and spread   37  (  1.846183,  5.329200,  0.000000 )     0.59902090
  WF centre and spread   38  (  0.000000,  6.394471,  0.000000 )     0.60012805
  WF centre and spread   39  (  0.615230,  7.459814,  0.000000 )     0.59886855
  WF centre and spread   40  (  1.230500,  8.525514,  0.000000 )     0.59901768
  WF centre and spread   41  (  1.845770,  7.459814,  0.000000 )     0.59886855
  WF centre and spread   42  (  0.615289,  9.590900,  0.000000 )     0.59879093
  WF centre and spread   43  (  1.845711,  9.590900,  0.000000 )     0.59879093
  WF centre and spread   44  (  0.000000, 10.656605,  0.000000 )     0.59899441
  WF centre and spread   45  (  0.615219, 11.722111,  0.000000 )     0.59879738
  WF centre and spread   46  (  1.230500, 12.787799,  0.000000 )     0.59903737
  WF centre and spread   47  (  1.845781, 11.722111,  0.000000 )     0.59879738
  WF centre and spread   48  (  0.615270, 13.853375,  0.000000 )     0.59880777
  WF centre and spread   49  (  1.845730, 13.853375,  0.000000 )     0.59880777
  WF centre and spread   50  (  0.000000, 14.919048,  0.000000 )     0.59906158
  WF centre and spread   51  (  0.615239, 15.984659,  0.000000 )     0.59881204
  WF centre and spread   52  (  1.230500, 17.050318,  0.000000 )     0.59907206
  WF centre and spread   53  (  1.845761, 15.984659,  0.000000 )     0.59881204
  WF centre and spread   54  (  0.615253, 18.115950,  0.000000 )     0.59881356
  WF centre and spread   55  (  1.845747, 18.115950,  0.000000 )     0.59881356
  WF centre and spread   56  (  0.000000, 19.181597,  0.000000 )     0.59907498
  WF centre and spread   57  (  0.615253,-19.632514,  0.000000 )     0.59881356
  WF centre and spread   58  (  1.230500,-18.566882,  0.000000 )     0.59907209
  WF centre and spread   59  (  1.845747,-19.632514,  0.000000 )     0.59881356
  WF centre and spread   60  (  0.615239,-17.501223,  0.000000 )     0.59881203
  WF centre and spread   61  (  1.845761,-17.501223,  0.000000 )     0.59881203
  WF centre and spread   62  (  0.000000,-16.435611,  0.000000 )     0.59906163
  WF centre and spread   63  (  0.615270,-15.369939,  0.000000 )     0.59880775
  WF centre and spread   64  (  1.230500,-14.304363,  0.000000 )     0.59903743
  WF centre and spread   65  (  1.845730,-15.369939,  0.000000 )     0.59880775
  WF centre and spread   66  (  0.615219,-13.238675,  0.000000 )     0.59879736
  WF centre and spread   67  (  1.845781,-13.238675,  0.000000 )     0.59879736
  WF centre and spread   68  (  0.000000,-12.173169,  0.000000 )     0.59899448
  WF centre and spread   69  (  0.615289,-11.107464,  0.000000 )     0.59879092
  WF centre and spread   70  (  1.230500,-10.042078,  0.000000 )     0.59901775
  WF centre and spread   71  (  1.845711,-11.107464,  0.000000 )     0.59879092
  WF centre and spread   72  (  0.615230, -8.976378,  0.000000 )     0.59886853
  WF centre and spread   73  (  1.845770, -8.976378,  0.000000 )     0.59886853
  WF centre and spread   74  (  0.000000, -7.911035,  0.000000 )     0.60012811
  WF centre and spread   75  (  0.614817, -6.845764,  0.000000 )     0.59902088
  WF centre and spread   76  (  1.230500, -5.773430,  0.000000 )     0.61762233
  WF centre and spread   77  (  1.846183, -6.845764,  0.000000 )     0.59902088
  WF centre and spread   78  (  0.617020, -4.723763,  0.000000 )     0.58873583
  WF centre and spread   79  (  1.843980, -4.723763,  0.000000 )     0.58873583
  WF centre and spread   80  (  0.000000,  2.133152,  0.000000 )     0.67176115
  WF centre and spread   81  (  0.000000, -3.649716,  0.000000 )     0.67176105
  Sum of centres and spreads ( 68.908000, -1.601204,  0.000000 )    56.51068578
 
         Spreads (Ang^2)       Omega I      =    47.040385174
        ================       Omega D      =     0.093123830
                               Omega OD     =     9.377176777
    Final Spread (Ang^2)       Omega Total  =    56.510685781
 ------------------------------------------------------------------------------
 Time for wannierise          150.085 (sec)

 Writing checkpoint file wannier90.chk... done

 *---------------------------------------------------------------------------*
 |                               PLOTTING                                    |
 *---------------------------------------------------------------------------*
 
 
 Calculating interpolated band-structure
 
 Time to calculate interpolated band structure       0.566 (sec)
 
 Time for plotting              0.888 (sec)
 Total Execution Time         232.675 (sec)

 *===========================================================================*
 |                             TIMING INFORMATION                            |
 *===========================================================================*
 |    Tag                                                Ncalls      Time (s)|
 |---------------------------------------------------------------------------|
 |kmesh: get                                        :         1         0.106|
 |overlap: read                                     :         1         2.461|
 |dis: main                                         :         1        79.060|
 |wann: main                                        :         1       150.085|
 |plot: main                                        :         1         0.888|
 *---------------------------------------------------------------------------*
 
 All done: wannier90 exiting
