    2    2    1    1
  0.1863137E+02  0.2461000E-09  0.2461000E-09  0.7104295E-09  0.5000000E-15
  1.000000000000000E-004
  CAR 
 Graphene                                
    8   27   16
 
  0.0000000E+00  0.0000000E+00  0.0000000E+00  0.4444444E-02
   1      -19.550534
   2       -7.653804
   3       -3.076359
   4       -3.076357
   5        2.722606
   6        6.369565
   7        8.351972
   8        8.351974
   9        9.131028
  10       11.477553
  11       12.640298
  12       18.420366
  13       22.558801
  14       22.898965
  15       28.290135
  16       28.290135
 
  0.6666667E-01  0.0000000E+00  0.0000000E+00  0.2666667E-01
   1      -19.445290
   2       -7.527820
   3       -3.498375
   4       -3.298245
   5        2.865940
   6        6.506188
   7        8.388846
   8        8.803036
   9        9.284598
  10       11.112024
  11       12.826902
  12       18.499510
  13       22.886838
  14       23.034962
  15       27.178114
  16       27.376154
 
  0.1333333E+00  0.0000000E+00  0.0000000E+00  0.2666667E-01
   1      -19.130208
   2       -7.151935
   3       -4.621084
   4       -3.860856
   5        3.296022
   6        6.913416
   7        8.395964
   8        9.713927
   9       10.045578
  10       10.096439
  11       13.432067
  12       18.688598
  13       23.286506
  14       23.842549
  15       24.880904
  16       25.893758
 
  0.2000000E+00  0.2775558E-16  0.0000000E+00  0.2666667E-01
   1      -18.607634
   2       -6.533185
   3       -6.163593
   4       -4.564865
   5        4.012475
   6        7.565395
   7        8.260339
   8        8.630517
   9       10.392343
  10       11.852539
  11       14.409632
  12       18.800991
  13       22.973064
  14       23.367751
  15       24.017436
  16       24.534035
 
  0.2666667E+00  0.0000000E+00  0.0000000E+00  0.2666667E-01
   1      -17.881943
   2       -7.892061
   3       -5.686748
   4       -5.250330
   5        5.013767
   6        6.785142
   7        8.020974
   8        8.579178
   9       11.327241
  10       14.003836
  11       15.459520
  12       18.443285
  13       20.758569
  14       21.855009
  15       23.413920
  16       24.342263
 
  0.3333333E+00  0.2775558E-16  0.0000000E+00  0.2666667E-01
   1      -16.960505
   2       -9.654789
   3       -5.820790
   4       -4.645779
   5        4.931726
   6        6.295388
   7        7.772853
   8        9.754565
   9       12.515771
  10       15.687503
  11       16.282409
  12       17.469717
  13       18.755887
  14       21.125946
  15       22.563308
  16       23.860893
 
  0.4000000E+00  0.5551115E-16  0.0000000E+00  0.2666667E-01
   1      -15.859494
   2      -11.352974
   3       -6.223299
   4       -3.496926
   5        3.172783
   6        7.533961
   7        7.900998
   8       11.157014
   9       13.885221
  10       14.042029
  11       16.141494
  12       18.214569
  13       18.380749
  14       20.204033
  15       21.992757
  16       22.644933
 
  0.4666667E+00  0.8326673E-16  0.0000000E+00  0.2666667E-01
   1      -14.655050
   2      -12.865779
   3       -6.430397
   4       -2.535621
   5        1.888046
   6        7.455954
   7        9.703728
   8       11.778939
   9       12.664642
  10       14.643484
  11       15.535623
  12       17.144854
  13       19.585503
  14       19.761352
  15       21.706648
  16       22.416933
 
  0.1333333E+00  0.6666667E-01  0.0000000E+00  0.2666667E-01
   1      -19.235125
   2       -7.276855
   3       -4.219332
   4       -3.742476
   5        3.152709
   6        6.778376
   7        8.544092
   8        9.483630
   9        9.579509
  10       10.424963
  11       13.255438
  12       18.628213
  13       23.185694
  14       23.577885
  15       25.122868
  16       26.849396
 
  0.2000000E+00  0.6666667E-01  0.0000000E+00  0.5333333E-01
   1      -18.816334
   2       -6.779274
   3       -5.462961
   4       -4.466730
   5        3.726220
   6        7.316408
   7        8.678385
   8        9.194097
   9       10.129520
  10       10.667891
  11       14.211638
  12       18.728347
  13       23.117964
  14       23.543579
  15       24.369637
  16       25.703937
 
  0.2666667E+00  0.6666667E-01  0.0000000E+00  0.5333333E-01
   1      -18.192214
   2       -7.040029
   3       -6.045497
   4       -5.221614
   5        4.585531
   6        7.538516
   7        8.177831
   8        8.573308
   9       10.929010
  10       12.322141
  11       15.534993
  12       18.399161
  13       21.993993
  14       22.228916
  15       24.174215
  16       24.292887
 
  0.3333333E+00  0.6666667E-01  0.0000000E+00  0.5333333E-01
   1      -17.368479
   2       -8.755026
   3       -5.880831
   4       -5.097440
   5        5.728302
   6        5.780112
   7        8.348668
   8        9.203373
   9       11.987693
  10       14.133126
  11       16.750560
  12       17.481523
  13       19.676337
  14       21.595687
  15       22.971234
  16       24.281864
 
  0.4000000E+00  0.6666667E-01  0.0000000E+00  0.5333333E-01
   1      -16.356025
   2      -10.471479
   3       -6.382312
   4       -3.986153
   5        3.978122
   6        7.146742
   7        8.131979
   8       10.479541
   9       13.288318
  10       14.820088
  11       16.382658
  12       16.980196
  13       19.093809
  14       20.353675
  15       22.758939
  16       23.180285
 
  0.4666667E+00  0.6666667E-01  0.0000000E+00  0.5333333E-01
   1      -15.184563
   2      -12.088668
   3       -6.693661
   4       -2.864477
   5        2.404624
   6        7.956896
   7        8.865818
   8       11.899273
   9       12.951458
  10       14.802006
  11       15.210673
  12       17.447824
  13       19.068617
  14       19.461144
  15       22.599032
  16       22.824164
 
 -0.4666667E+00  0.6666667E-01  0.0000000E+00  0.2666667E-01
   1      -14.221743
   2      -13.203593
   3       -6.799030
   4       -2.272724
   5        1.656172
   6        7.909070
   7       10.746323
   8       10.878535
   9       12.934705
  10       14.281028
  11       16.248485
  12       16.514735
  13       18.585485
  14       19.800982
  15       22.726887
  16       22.815219
 
  0.2666667E+00  0.1333333E+00  0.0000000E+00  0.2666667E-01
   1      -18.295960
   2       -6.558838
   3       -6.165889
   4       -5.426402
   5        4.442917
   6        7.886534
   7        7.980395
   8        9.340854
   9       10.825575
  10       11.071291
  11       15.664120
  12       18.245617
  13       21.921877
  14       23.484432
  15       24.342183
  16       24.381781
 
  0.3333333E+00  0.1333333E+00  0.0000000E+00  0.5333333E-01
   1      -17.573840
   2       -7.949382
   3       -6.330099
   4       -5.326585
   5        5.444290
   6        6.326347
   7        8.888136
   8        9.599783
   9       11.716209
  10       12.156283
  11       17.070452
  12       17.299612
  13       21.114404
  14       21.883872
  15       23.025221
  16       23.554737
 
  0.4000000E+00  0.1333333E+00  0.0000000E+00  0.5333333E-01
   1      -16.658238
   2       -9.537546
   3       -7.002381
   4       -4.292653
   5        4.646340
   6        6.726822
   7        9.466575
   8       10.001201
   9       12.877103
  10       13.664615
  11       15.888241
  12       17.581238
  13       19.752557
  14       21.196635
  15       22.217162
  16       22.834442
 
  0.4666667E+00  0.1333333E+00  0.0000000E+00  0.5333333E-01
   1      -15.566710
   2      -11.148292
   3       -7.445952
   4       -3.143792
   5        3.010742
   6        8.281047
   7        9.293377
   8       11.212108
   9       13.912776
  10       14.344080
  11       15.052120
  12       16.586895
  13       19.299413
  14       20.193647
  15       21.564310
  16       23.083589
 
 -0.4666667E+00  0.1333333E+00  0.0000000E+00  0.5333333E-01
   1      -14.377828
   2      -12.614499
   3       -7.667564
   4       -2.160341
   5        1.765904
   6        9.172512
   7       10.112285
   8       12.133240
   9       12.181272
  10       14.643430
  11       15.722959
  12       16.845112
  13       17.893300
  14       19.664958
  15       21.284913
  16       23.286303
 
  0.4000000E+00  0.2000000E+00  0.0000000E+00  0.2666667E-01
   1      -16.759596
   2       -8.959731
   3       -7.501241
   4       -4.396802
   5        4.919551
   6        6.585307
   7        9.819912
   8       10.829427
   9       12.072965
  10       12.812325
  11       15.600293
  12       18.640941
  13       19.934433
  14       20.883693
  15       22.184320
  16       22.319115
 
  0.4666667E+00  0.2000000E+00  0.0000000E+00  0.5333333E-01
   1      -15.762659
   2      -10.241444
   3       -8.319546
   4       -3.299461
   5        3.438250
   6        8.002053
   7       10.780285
   8       11.073173
   9       13.111953
  10       14.093733
  11       14.650671
  12       17.181362
  13       19.109532
  14       20.347245
  15       21.331622
  16       22.554689
 
 -0.4666667E+00  0.2000000E+00  0.0000000E+00  0.5333333E-01
   1      -14.616525
   2      -11.667339
   3       -8.744987
   4       -2.158450
   5        2.044001
   6        9.677500
   7       10.944971
   8       11.395687
   9       13.319110
  10       14.639520
  11       15.346720
  12       16.250885
  13       18.446125
  14       18.789280
  15       20.526705
  16       22.454705
 
 -0.4000000E+00  0.2000000E+00  0.0000000E+00  0.2666667E-01
   1      -13.682654
   2      -12.710427
   3       -8.877382
   4       -1.506591
   5        1.303069
   6       10.869495
   7       11.486361
   8       11.531795
   9       11.671830
  10       15.118457
  11       15.956159
  12       16.829340
  13       17.372879
  14       18.670106
  15       19.592713
  16       22.376892
 
 -0.4666667E+00  0.2666667E+00  0.0000000E+00  0.2666667E-01
   1      -14.704856
   2      -11.020258
   3       -9.444419
   4       -2.171551
   5        2.189055
   6        9.538202
   7       11.071995
   8       12.661475
   9       12.834930
  10       14.549238
  11       15.331997
  12       16.667580
  13       16.870884
  14       19.196124
  15       21.832293
  16       22.070253
 
 -0.4000000E+00  0.2666667E+00  0.0000000E+00  0.5333333E-01
   1      -13.565265
   2      -12.067518
   3       -9.984999
   4       -1.087158
   5        1.049936
   6       10.928363
   7       11.278795
   8       12.569421
   9       12.976771
  10       15.512734
  11       15.621820
  12       16.355149
  13       16.811374
  14       17.730635
  15       20.267008
  16       20.800248
 
 -0.3333333E+00  0.3333333E+00  0.0000000E+00  0.8888889E-02
   1      -12.609930
   2      -12.609929
   3      -10.604573
   4        0.001349
   5        0.001349
   6       10.672641
   7       12.657314
   8       12.657320
   9       13.122190
  10       15.486758
  11       15.486772
  12       16.775901
  13       16.775902
  14       16.919760
  15       20.018653
  16       20.608166
