PROCAR lm decomposed
# of k-points:   27         # of bands:  16         # of ions:   2

 k-point    1 :    0.00000000 0.00000000 0.00000000     weight = 0.00444444

band   1 # energy  -19.55053365 # occ.  2.00000000
 
ion      s     py     pz     px    dxy    dyz    dz2    dxz    dx2    tot
  1  0.323  0.000  0.000  0.000  0.000  0.000  0.000  0.000  0.000  0.323
  2  0.323  0.000  0.000  0.000  0.000  0.000  0.000  0.000  0.000  0.323
tot  0.646  0.000  0.000  0.000  0.000  0.000  0.000  0.000  0.000  0.646
 
band   2 # energy   -7.65380358 # occ.  2.00000000
 
ion      s     py     pz     px    dxy    dyz    dz2    dxz    dx2    tot
  1  0.000  0.000  0.216  0.000  0.000  0.000  0.000  0.000  0.000  0.216
  2  0.000  0.000  0.216  0.000  0.000  0.000  0.000  0.000  0.000  0.216
tot  0.000  0.000  0.431  0.000  0.000  0.000  0.000  0.000  0.000  0.431
 
band   3 # energy   -3.07635923 # occ.  2.00000000
 
ion      s     py     pz     px    dxy    dyz    dz2    dxz    dx2    tot
  1  0.000  0.413  0.000  0.000  0.000  0.000  0.000  0.000  0.000  0.413
  2  0.000  0.413  0.000  0.000  0.000  0.000  0.000  0.000  0.000  0.413
tot  0.000  0.826  0.000  0.000  0.000  0.000  0.000  0.000  0.000  0.826
 
band   4 # energy   -3.07635723 # occ.  2.00000000
 
ion      s     py     pz     px    dxy    dyz    dz2    dxz    dx2    tot
  1  0.000  0.000  0.000  0.413  0.000  0.000  0.000  0.000  0.000  0.413
  2  0.000  0.000  0.000  0.413  0.000  0.000  0.000  0.000  0.000  0.413
tot  0.000  0.000  0.000  0.826  0.000  0.000  0.000  0.000  0.000  0.826
 
band   5 # energy    2.72260619 # occ.  0.00000000
 
ion      s     py     pz     px    dxy    dyz    dz2    dxz    dx2    tot
  1  0.010  0.000  0.000  0.000  0.000  0.000  0.000  0.000  0.000  0.010
  2  0.010  0.000  0.000  0.000  0.000  0.000  0.000  0.000  0.000  0.010
tot  0.019  0.000  0.000  0.000  0.000  0.000  0.000  0.000  0.000  0.019
 
band   6 # energy    6.36956502 # occ.  0.00000000
 
ion      s     py     pz     px    dxy    dyz    dz2    dxz    dx2    tot
  1  0.000  0.000  0.046  0.000  0.000  0.000  0.000  0.000  0.000  0.046
  2  0.000  0.000  0.046  0.000  0.000  0.000  0.000  0.000  0.000  0.046
tot  0.000  0.000  0.091  0.000  0.000  0.000  0.000  0.000  0.000  0.091
 
band   7 # energy    8.35197216 # occ.  0.00000000
 
ion      s     py     pz     px    dxy    dyz    dz2    dxz    dx2    tot
  1  0.000  0.263  0.000  0.000  0.000  0.000  0.000  0.000  0.000  0.263
  2  0.000  0.263  0.000  0.000  0.000  0.000  0.000  0.000  0.000  0.263
tot  0.000  0.527  0.000  0.000  0.000  0.000  0.000  0.000  0.000  0.527
 
band   8 # energy    8.35197376 # occ.  0.00000000
 
ion      s     py     pz     px    dxy    dyz    dz2    dxz    dx2    tot
  1  0.000  0.000  0.000  0.263  0.000  0.000  0.000  0.000  0.000  0.263
  2  0.000  0.000  0.000  0.263  0.000  0.000  0.000  0.000  0.000  0.263
tot  0.000  0.000  0.000  0.527  0.000  0.000  0.000  0.000  0.000  0.527
 
band   9 # energy    9.13102837 # occ.  0.00000000
 
ion      s     py     pz     px    dxy    dyz    dz2    dxz    dx2    tot
  1  0.020  0.000  0.000  0.000  0.000  0.000  0.000  0.000  0.000  0.020
  2  0.020  0.000  0.000  0.000  0.000  0.000  0.000  0.000  0.000  0.020
tot  0.041  0.000  0.000  0.000  0.000  0.000  0.000  0.000  0.000  0.041
 
band  10 # energy   11.47755267 # occ.  0.00000000
 
ion      s     py     pz     px    dxy    dyz    dz2    dxz    dx2    tot
  1  0.000  0.000  0.390  0.000  0.000  0.000  0.000  0.000  0.000  0.390
  2  0.000  0.000  0.390  0.000  0.000  0.000  0.000  0.000  0.000  0.390
tot  0.000  0.000  0.781  0.000  0.000  0.000  0.000  0.000  0.000  0.781
 
band  11 # energy   12.64029813 # occ.  0.00000000
 
ion      s     py     pz     px    dxy    dyz    dz2    dxz    dx2    tot
  1  0.360  0.000  0.000  0.000  0.000  0.000  0.000  0.000  0.000  0.360
  2  0.360  0.000  0.000  0.000  0.000  0.000  0.000  0.000  0.000  0.360
tot  0.720  0.000  0.000  0.000  0.000  0.000  0.000  0.000  0.000  0.720
 
band  12 # energy   18.42036636 # occ.  0.00000000
 
ion      s     py     pz     px    dxy    dyz    dz2    dxz    dx2    tot
  1  0.000  0.000  0.080  0.000  0.000  0.000  0.000  0.000  0.000  0.080
  2  0.000  0.000  0.080  0.000  0.000  0.000  0.000  0.000  0.000  0.080
tot  0.000  0.000  0.160  0.000  0.000  0.000  0.000  0.000  0.000  0.160
 
band  13 # energy   22.55880064 # occ.  0.00000000
 
ion      s     py     pz     px    dxy    dyz    dz2    dxz    dx2    tot
  1  0.052  0.000  0.000  0.000  0.000  0.000  0.000  0.000  0.000  0.052
  2  0.052  0.000  0.000  0.000  0.000  0.000  0.000  0.000  0.000  0.052
tot  0.103  0.000  0.000  0.000  0.000  0.000  0.000  0.000  0.000  0.103
 
band  14 # energy   22.89896490 # occ.  0.00000000
 
ion      s     py     pz     px    dxy    dyz    dz2    dxz    dx2    tot
  1  0.024  0.000  0.000  0.000  0.000  0.000  0.000  0.000  0.000  0.024
  2  0.024  0.000  0.000  0.000  0.000  0.000  0.000  0.000  0.000  0.024
tot  0.048  0.000  0.000  0.000  0.000  0.000  0.000  0.000  0.000  0.048
 
band  15 # energy   28.29013504 # occ.  0.00000000
 
ion      s     py     pz     px    dxy    dyz    dz2    dxz    dx2    tot
  1  0.000  0.000  0.000  0.000  0.000  0.000  0.000  0.000  0.000  0.000
  2  0.000  0.000  0.000  0.000  0.000  0.000  0.000  0.000  0.000  0.000
tot  0.000  0.000  0.000  0.000  0.000  0.000  0.000  0.000  0.000  0.000
 
band  16 # energy   28.29013507 # occ.  0.00000000
 
ion      s     py     pz     px    dxy    dyz    dz2    dxz    dx2    tot
  1  0.000  0.000  0.000  0.000  0.000  0.000  0.000  0.000  0.000  0.000
  2  0.000  0.000  0.000  0.000  0.000  0.000  0.000  0.000  0.000  0.000
tot  0.000  0.000  0.000  0.000  0.000  0.000  0.000  0.000  0.000  0.000
 

 k-point    2 :    0.06666667 0.00000000 0.00000000     weight = 0.02666667

band   1 # energy  -19.44529050 # occ.  2.00000000
 
ion      s     py     pz     px    dxy    dyz    dz2    dxz    dx2    tot
  1  0.321  0.001  0.000  0.002  0.000  0.000  0.000  0.000  0.000  0.323
  2  0.321  0.001  0.000  0.002  0.000  0.000  0.000  0.000  0.000  0.323
tot  0.642  0.001  0.000  0.003  0.000  0.000  0.000  0.000  0.000  0.647
 
band   2 # energy   -7.52781970 # occ.  2.00000000
 
ion      s     py     pz     px    dxy    dyz    dz2    dxz    dx2    tot
  1  0.000  0.000  0.216  0.000  0.000  0.000  0.000  0.000  0.000  0.216
  2  0.000  0.000  0.216  0.000  0.000  0.000  0.000  0.000  0.000  0.216
tot  0.000  0.000  0.432  0.000  0.000  0.000  0.000  0.000  0.000  0.432
 
band   3 # energy   -3.49837521 # occ.  2.00000000
 
ion      s     py     pz     px    dxy    dyz    dz2    dxz    dx2    tot
  1  0.012  0.099  0.000  0.298  0.000  0.000  0.000  0.000  0.000  0.409
  2  0.012  0.099  0.000  0.298  0.000  0.000  0.000  0.000  0.000  0.409
tot  0.024  0.199  0.000  0.596  0.000  0.000  0.000  0.000  0.000  0.818
 
band   4 # energy   -3.29824485 # occ.  2.00000000
 
ion      s     py     pz     px    dxy    dyz    dz2    dxz    dx2    tot
  1  0.000  0.308  0.000  0.103  0.000  0.000  0.000  0.000  0.000  0.410
  2  0.000  0.308  0.000  0.103  0.000  0.000  0.000  0.000  0.000  0.410
tot  0.000  0.616  0.000  0.205  0.000  0.000  0.000  0.000  0.000  0.821
 
band   5 # energy    2.86593998 # occ.  0.00000000
 
ion      s     py     pz     px    dxy    dyz    dz2    dxz    dx2    tot
  1  0.010  0.000  0.000  0.000  0.000  0.000  0.000  0.000  0.000  0.010
  2  0.010  0.000  0.000  0.000  0.000  0.000  0.000  0.000  0.000  0.010
tot  0.019  0.000  0.000  0.000  0.000  0.000  0.000  0.000  0.000  0.020
 
band   6 # energy    6.50618771 # occ.  0.00000000
 
ion      s     py     pz     px    dxy    dyz    dz2    dxz    dx2    tot
  1  0.000  0.000  0.046  0.000  0.000  0.000  0.000  0.000  0.000  0.046
  2  0.000  0.000  0.046  0.000  0.000  0.000  0.000  0.000  0.000  0.046
tot  0.000  0.000  0.091  0.000  0.000  0.000  0.000  0.000  0.000  0.091
 
band   7 # energy    8.38884610 # occ.  0.00000000
 
ion      s     py     pz     px    dxy    dyz    dz2    dxz    dx2    tot
  1  0.005  0.062  0.000  0.187  0.000  0.000  0.000  0.000  0.000  0.255
  2  0.005  0.062  0.000  0.187  0.000  0.000  0.000  0.000  0.000  0.255
tot  0.010  0.125  0.000  0.374  0.000  0.000  0.000  0.000  0.000  0.509
 
band   8 # energy    8.80303592 # occ.  0.00000000
 
ion      s     py     pz     px    dxy    dyz    dz2    dxz    dx2    tot
  1  0.000  0.200  0.000  0.067  0.000  0.000  0.000  0.000  0.000  0.267
  2  0.000  0.200  0.000  0.067  0.000  0.000  0.000  0.000  0.000  0.267
tot  0.000  0.401  0.000  0.134  0.000  0.000  0.000  0.000  0.000  0.534
 
band   9 # energy    9.28459843 # occ.  0.00000000
 
ion      s     py     pz     px    dxy    dyz    dz2    dxz    dx2    tot
  1  0.023  0.001  0.000  0.002  0.000  0.000  0.000  0.000  0.000  0.025
  2  0.023  0.001  0.000  0.002  0.000  0.000  0.000  0.000  0.000  0.025
tot  0.045  0.001  0.000  0.004  0.000  0.000  0.000  0.000  0.000  0.050
 
band  10 # energy   11.11202411 # occ.  0.00000000
 
ion      s     py     pz     px    dxy    dyz    dz2    dxz    dx2    tot
  1  0.000  0.000  0.382  0.000  0.000  0.000  0.000  0.000  0.000  0.382
  2  0.000  0.000  0.382  0.000  0.000  0.000  0.000  0.000  0.000  0.382
tot  0.000  0.000  0.763  0.000  0.000  0.000  0.000  0.000  0.000  0.763
 
band  11 # energy   12.82690199 # occ.  0.00000000
 
ion      s     py     pz     px    dxy    dyz    dz2    dxz    dx2    tot
  1  0.344  0.004  0.000  0.012  0.000  0.000  0.000  0.000  0.000  0.360
  2  0.344  0.004  0.000  0.012  0.000  0.000  0.000  0.000  0.000  0.360
tot  0.688  0.008  0.000  0.024  0.000  0.000  0.000  0.000  0.000  0.720
 
band  12 # energy   18.49951047 # occ.  0.00000000
 
ion      s     py     pz     px    dxy    dyz    dz2    dxz    dx2    tot
  1  0.000  0.000  0.080  0.000  0.000  0.000  0.000  0.000  0.000  0.080
  2  0.000  0.000  0.080  0.000  0.000  0.000  0.000  0.000  0.000  0.080
tot  0.000  0.000  0.161  0.000  0.000  0.000  0.000  0.000  0.000  0.161
 
band  13 # energy   22.88683781 # occ.  0.00000000
 
ion      s     py     pz     px    dxy    dyz    dz2    dxz    dx2    tot
  1  0.063  0.004  0.000  0.013  0.000  0.000  0.000  0.000  0.000  0.081
  2  0.063  0.004  0.000  0.013  0.000  0.000  0.000  0.000  0.000  0.081
tot  0.126  0.009  0.000  0.027  0.000  0.000  0.000  0.000  0.000  0.162
 
band  14 # energy   23.03496249 # occ.  0.00000000
 
ion      s     py     pz     px    dxy    dyz    dz2    dxz    dx2    tot
  1  0.005  0.000  0.000  0.000  0.000  0.000  0.000  0.000  0.000  0.005
  2  0.005  0.000  0.000  0.000  0.000  0.000  0.000  0.000  0.000  0.005
tot  0.010  0.000  0.000  0.000  0.000  0.000  0.000  0.000  0.000  0.010
 
band  15 # energy   27.17811380 # occ.  0.00000000
 
ion      s     py     pz     px    dxy    dyz    dz2    dxz    dx2    tot
  1  0.000  0.000  0.009  0.000  0.000  0.000  0.000  0.000  0.000  0.009
  2  0.000  0.000  0.009  0.000  0.000  0.000  0.000  0.000  0.000  0.009
tot  0.000  0.000  0.019  0.000  0.000  0.000  0.000  0.000  0.000  0.019
 
band  16 # energy   27.37615421 # occ.  0.00000000
 
ion      s     py     pz     px    dxy    dyz    dz2    dxz    dx2    tot
  1  0.000  0.000  0.000  0.000  0.000  0.000  0.000  0.000  0.000  0.000
  2  0.000  0.000  0.000  0.000  0.000  0.000  0.000  0.000  0.000  0.000
tot  0.000  0.000  0.000  0.000  0.000  0.000  0.000  0.000  0.000  0.000
 

 k-point    3 :    0.13333333 0.00000000 0.00000000     weight = 0.02666667

band   1 # energy  -19.13020776 # occ.  2.00000000
 
ion      s     py     pz     px    dxy    dyz    dz2    dxz    dx2    tot
  1  0.316  0.002  0.000  0.007  0.000  0.000  0.000  0.000  0.000  0.325
  2  0.316  0.002  0.000  0.007  0.000  0.000  0.000  0.000  0.000  0.325
tot  0.632  0.004  0.000  0.013  0.000  0.000  0.000  0.000  0.000  0.650
 
band   2 # energy   -7.15193463 # occ.  2.00000000
 
ion      s     py     pz     px    dxy    dyz    dz2    dxz    dx2    tot
  1  0.000  0.000  0.217  0.000  0.000  0.000  0.000  0.000  0.000  0.217
  2  0.000  0.000  0.217  0.000  0.000  0.000  0.000  0.000  0.000  0.217
tot  0.000  0.000  0.435  0.000  0.000  0.000  0.000  0.000  0.000  0.435
 
band   3 # energy   -4.62108353 # occ.  2.00000000
 
ion      s     py     pz     px    dxy    dyz    dz2    dxz    dx2    tot
  1  0.040  0.090  0.000  0.269  0.000  0.000  0.000  0.000  0.000  0.399
  2  0.040  0.090  0.000  0.269  0.000  0.000  0.000  0.000  0.000  0.399
tot  0.081  0.180  0.000  0.539  0.000  0.000  0.000  0.000  0.000  0.799
 
band   4 # energy   -3.86085572 # occ.  2.00000000
 
ion      s     py     pz     px    dxy    dyz    dz2    dxz    dx2    tot
  1  0.000  0.304  0.000  0.101  0.000  0.000  0.000  0.000  0.000  0.405
  2  0.000  0.304  0.000  0.101  0.000  0.000  0.000  0.000  0.000  0.405
tot  0.000  0.608  0.000  0.203  0.000  0.000  0.000  0.000  0.000  0.810
 
band   5 # energy    3.29602206 # occ.  0.00000000
 
ion      s     py     pz     px    dxy    dyz    dz2    dxz    dx2    tot
  1  0.009  0.000  0.000  0.001  0.000  0.000  0.000  0.000  0.000  0.010
  2  0.009  0.000  0.000  0.001  0.000  0.000  0.000  0.000  0.000  0.010
tot  0.018  0.000  0.000  0.001  0.000  0.000  0.000  0.000  0.000  0.020
 
band   6 # energy    6.91341572 # occ.  0.00000000
 
ion      s     py     pz     px    dxy    dyz    dz2    dxz    dx2    tot
  1  0.000  0.000  0.046  0.000  0.000  0.000  0.000  0.000  0.000  0.046
  2  0.000  0.000  0.046  0.000  0.000  0.000  0.000  0.000  0.000  0.046
tot  0.000  0.000  0.092  0.000  0.000  0.000  0.000  0.000  0.000  0.092
 
band   7 # energy    8.39596443 # occ.  0.00000000
 
ion      s     py     pz     px    dxy    dyz    dz2    dxz    dx2    tot
  1  0.033  0.053  0.000  0.158  0.000  0.000  0.000  0.000  0.000  0.244
  2  0.033  0.053  0.000  0.158  0.000  0.000  0.000  0.000  0.000  0.244
tot  0.066  0.105  0.000  0.316  0.000  0.000  0.000  0.000  0.000  0.487
 
band   8 # energy    9.71392666 # occ.  0.00000000
 
ion      s     py     pz     px    dxy    dyz    dz2    dxz    dx2    tot
  1  0.026  0.000  0.000  0.001  0.000  0.000  0.000  0.000  0.000  0.028
  2  0.026  0.000  0.000  0.001  0.000  0.000  0.000  0.000  0.000  0.028
tot  0.053  0.001  0.000  0.002  0.000  0.000  0.000  0.000  0.000  0.055
 
band   9 # energy   10.04557771 # occ.  0.00000000
 
ion      s     py     pz     px    dxy    dyz    dz2    dxz    dx2    tot
  1  0.000  0.207  0.000  0.069  0.000  0.000  0.000  0.000  0.000  0.277
  2  0.000  0.207  0.000  0.069  0.000  0.000  0.000  0.000  0.000  0.277
tot  0.000  0.415  0.000  0.138  0.000  0.000  0.000  0.000  0.000  0.553
 
band  10 # energy   10.09643852 # occ.  0.00000000
 
ion      s     py     pz     px    dxy    dyz    dz2    dxz    dx2    tot
  1  0.000  0.000  0.359  0.000  0.000  0.000  0.000  0.000  0.000  0.359
  2  0.000  0.000  0.359  0.000  0.000  0.000  0.000  0.000  0.000  0.359
tot  0.000  0.000  0.718  0.000  0.000  0.000  0.000  0.000  0.000  0.718
 
band  11 # energy   13.43206721 # occ.  0.00000000
 
ion      s     py     pz     px    dxy    dyz    dz2    dxz    dx2    tot
  1  0.292  0.017  0.000  0.050  0.000  0.000  0.000  0.000  0.000  0.358
  2  0.292  0.017  0.000  0.050  0.000  0.000  0.000  0.000  0.000  0.358
tot  0.583  0.033  0.000  0.100  0.000  0.000  0.000  0.000  0.000  0.716
 
band  12 # energy   18.68859814 # occ.  0.00000000
 
ion      s     py     pz     px    dxy    dyz    dz2    dxz    dx2    tot
  1  0.000  0.000  0.081  0.000  0.000  0.000  0.000  0.000  0.000  0.081
  2  0.000  0.000  0.081  0.000  0.000  0.000  0.000  0.000  0.000  0.081
tot  0.000  0.000  0.162  0.000  0.000  0.000  0.000  0.000  0.000  0.162
 
band  13 # energy   23.28650576 # occ.  0.00000000
 
ion      s     py     pz     px    dxy    dyz    dz2    dxz    dx2    tot
  1  0.038  0.006  0.000  0.017  0.000  0.000  0.000  0.000  0.000  0.062
  2  0.038  0.006  0.000  0.017  0.000  0.000  0.000  0.000  0.000  0.062
tot  0.077  0.012  0.000  0.035  0.000  0.000  0.000  0.000  0.000  0.123
 
band  14 # energy   23.84254904 # occ.  0.00000000
 
ion      s     py     pz     px    dxy    dyz    dz2    dxz    dx2    tot
  1  0.009  0.011  0.000  0.032  0.000  0.000  0.000  0.000  0.000  0.052
  2  0.009  0.011  0.000  0.032  0.000  0.000  0.000  0.000  0.000  0.052
tot  0.018  0.022  0.000  0.065  0.000  0.000  0.000  0.000  0.000  0.104
 
band  15 # energy   24.88090354 # occ.  0.00000000
 
ion      s     py     pz     px    dxy    dyz    dz2    dxz    dx2    tot
  1  0.000  0.000  0.019  0.000  0.000  0.000  0.000  0.000  0.000  0.019
  2  0.000  0.000  0.019  0.000  0.000  0.000  0.000  0.000  0.000  0.019
tot  0.000  0.000  0.038  0.000  0.000  0.000  0.000  0.000  0.000  0.038
 
band  16 # energy   25.89375838 # occ.  0.00000000
 
ion      s     py     pz     px    dxy    dyz    dz2    dxz    dx2    tot
  1  0.000  0.000  0.000  0.000  0.000  0.000  0.000  0.000  0.000  0.000
  2  0.000  0.000  0.000  0.000  0.000  0.000  0.000  0.000  0.000  0.000
tot  0.000  0.000  0.000  0.000  0.000  0.000  0.000  0.000  0.000  0.000
 

 k-point    4 :    0.20000000 0.00000000 0.00000000     weight = 0.02666667

band   1 # energy  -18.60763364 # occ.  2.00000000
 
ion      s     py     pz     px    dxy    dyz    dz2    dxz    dx2    tot
  1  0.308  0.005  0.000  0.015  0.000  0.000  0.000  0.000  0.000  0.328
  2  0.308  0.005  0.000  0.015  0.000  0.000  0.000  0.000  0.000  0.328
tot  0.616  0.010  0.000  0.030  0.000  0.000  0.000  0.000  0.000  0.656
 
band   2 # energy   -6.53318487 # occ.  2.00000000
 
ion      s     py     pz     px    dxy    dyz    dz2    dxz    dx2    tot
  1  0.000  0.000  0.220  0.000  0.000  0.000  0.000  0.000  0.000  0.220
  2  0.000  0.000  0.220  0.000  0.000  0.000  0.000  0.000  0.000  0.220
tot  0.000  0.000  0.440  0.000  0.000  0.000  0.000  0.000  0.000  0.440
 
band   3 # energy   -6.16359302 # occ.  2.00000000
 
ion      s     py     pz     px    dxy    dyz    dz2    dxz    dx2    tot
  1  0.074  0.079  0.000  0.236  0.000  0.000  0.000  0.000  0.000  0.388
  2  0.074  0.079  0.000  0.236  0.000  0.000  0.000  0.000  0.000  0.388
tot  0.148  0.157  0.000  0.472  0.000  0.000  0.000  0.000  0.000  0.776
 
band   4 # energy   -4.56486484 # occ.  2.00000000
 
ion      s     py     pz     px    dxy    dyz    dz2    dxz    dx2    tot
  1  0.000  0.300  0.000  0.100  0.000  0.000  0.000  0.000  0.000  0.400
  2  0.000  0.300  0.000  0.100  0.000  0.000  0.000  0.000  0.000  0.400
tot  0.000  0.600  0.000  0.200  0.000  0.000  0.000  0.000  0.000  0.800
 
band   5 # energy    4.01247492 # occ.  0.00000000
 
ion      s     py     pz     px    dxy    dyz    dz2    dxz    dx2    tot
  1  0.008  0.001  0.000  0.002  0.000  0.000  0.000  0.000  0.000  0.010
  2  0.008  0.001  0.000  0.002  0.000  0.000  0.000  0.000  0.000  0.010
tot  0.016  0.001  0.000  0.003  0.000  0.000  0.000  0.000  0.000  0.021
 
band   6 # energy    7.56539484 # occ.  0.00000000
 
ion      s     py     pz     px    dxy    dyz    dz2    dxz    dx2    tot
  1  0.000  0.000  0.052  0.000  0.000  0.000  0.000  0.000  0.000  0.052
  2  0.000  0.000  0.052  0.000  0.000  0.000  0.000  0.000  0.000  0.052
tot  0.000  0.000  0.105  0.000  0.000  0.000  0.000  0.000  0.000  0.105
 
band   7 # energy    8.26033910 # occ.  0.00000000
 
ion      s     py     pz     px    dxy    dyz    dz2    dxz    dx2    tot
  1  0.080  0.039  0.000  0.118  0.000  0.000  0.000  0.000  0.000  0.238
  2  0.080  0.039  0.000  0.118  0.000  0.000  0.000  0.000  0.000  0.238
tot  0.160  0.079  0.000  0.236  0.000  0.000  0.000  0.000  0.000  0.475
 
band   8 # energy    8.63051699 # occ.  0.00000000
 
ion      s     py     pz     px    dxy    dyz    dz2    dxz    dx2    tot
  1  0.000  0.000  0.325  0.000  0.000  0.000  0.000  0.000  0.000  0.325
  2  0.000  0.000  0.325  0.000  0.000  0.000  0.000  0.000  0.000  0.325
tot  0.000  0.000  0.651  0.000  0.000  0.000  0.000  0.000  0.000  0.651
 
band   9 # energy   10.39234320 # occ.  0.00000000
 
ion      s     py     pz     px    dxy    dyz    dz2    dxz    dx2    tot
  1  0.025  0.000  0.000  0.000  0.000  0.000  0.000  0.000  0.000  0.026
  2  0.025  0.000  0.000  0.000  0.000  0.000  0.000  0.000  0.000  0.026
tot  0.051  0.000  0.000  0.000  0.000  0.000  0.000  0.000  0.000  0.051
 
band  10 # energy   11.85253891 # occ.  0.00000000
 
ion      s     py     pz     px    dxy    dyz    dz2    dxz    dx2    tot
  1  0.000  0.217  0.000  0.072  0.000  0.000  0.000  0.000  0.000  0.289
  2  0.000  0.217  0.000  0.072  0.000  0.000  0.000  0.000  0.000  0.289
tot  0.000  0.433  0.000  0.144  0.000  0.000  0.000  0.000  0.000  0.578
 
band  11 # energy   14.40963207 # occ.  0.00000000
 
ion      s     py     pz     px    dxy    dyz    dz2    dxz    dx2    tot
  1  0.216  0.033  0.000  0.098  0.000  0.000  0.000  0.000  0.000  0.347
  2  0.216  0.033  0.000  0.098  0.000  0.000  0.000  0.000  0.000  0.347
tot  0.432  0.066  0.000  0.197  0.000  0.000  0.000  0.000  0.000  0.694
 
band  12 # energy   18.80099066 # occ.  0.00000000
 
ion      s     py     pz     px    dxy    dyz    dz2    dxz    dx2    tot
  1  0.000  0.000  0.080  0.000  0.000  0.000  0.000  0.000  0.000  0.080
  2  0.000  0.000  0.080  0.000  0.000  0.000  0.000  0.000  0.000  0.080
tot  0.000  0.000  0.160  0.000  0.000  0.000  0.000  0.000  0.000  0.160
 
band  13 # energy   22.97306438 # occ.  0.00000000
 
ion      s     py     pz     px    dxy    dyz    dz2    dxz    dx2    tot
  1  0.000  0.000  0.033  0.000  0.000  0.000  0.000  0.000  0.000  0.033
  2  0.000  0.000  0.033  0.000  0.000  0.000  0.000  0.000  0.000  0.033
tot  0.000  0.000  0.067  0.000  0.000  0.000  0.000  0.000  0.000  0.067
 
band  14 # energy   23.36775112 # occ.  0.00000000
 
ion      s     py     pz     px    dxy    dyz    dz2    dxz    dx2    tot
  1  0.015  0.015  0.000  0.046  0.000  0.000  0.000  0.000  0.000  0.076
  2  0.015  0.015  0.000  0.046  0.000  0.000  0.000  0.000  0.000  0.076
tot  0.030  0.031  0.000  0.092  0.000  0.000  0.000  0.000  0.000  0.152
 
band  15 # energy   24.01743640 # occ.  0.00000000
 
ion      s     py     pz     px    dxy    dyz    dz2    dxz    dx2    tot
  1  0.019  0.000  0.000  0.001  0.000  0.000  0.000  0.000  0.000  0.020
  2  0.019  0.000  0.000  0.001  0.000  0.000  0.000  0.000  0.000  0.020
tot  0.038  0.001  0.000  0.002  0.000  0.000  0.000  0.000  0.000  0.040
 
band  16 # energy   24.53403546 # occ.  0.00000000
 
ion      s     py     pz     px    dxy    dyz    dz2    dxz    dx2    tot
  1  0.000  0.000  0.000  0.000  0.000  0.000  0.000  0.000  0.000  0.000
  2  0.000  0.000  0.000  0.000  0.000  0.000  0.000  0.000  0.000  0.000
tot  0.000  0.000  0.000  0.000  0.000  0.000  0.000  0.000  0.000  0.000
 

 k-point    5 :    0.26666667 0.00000000 0.00000000     weight = 0.02666667

band   1 # energy  -17.88194328 # occ.  2.00000000
 
ion      s     py     pz     px    dxy    dyz    dz2    dxz    dx2    tot
  1  0.297  0.009  0.000  0.026  0.000  0.000  0.000  0.000  0.000  0.332
  2  0.297  0.009  0.000  0.026  0.000  0.000  0.000  0.000  0.000  0.332
tot  0.594  0.018  0.000  0.053  0.000  0.000  0.000  0.000  0.000  0.664
 
band   2 # energy   -7.89206053 # occ.  2.00000000
 
ion      s     py     pz     px    dxy    dyz    dz2    dxz    dx2    tot
  1  0.107  0.068  0.000  0.203  0.000  0.000  0.000  0.000  0.000  0.377
  2  0.107  0.068  0.000  0.203  0.000  0.000  0.000  0.000  0.000  0.377
tot  0.213  0.135  0.000  0.406  0.000  0.000  0.000  0.000  0.000  0.754
 
band   3 # energy   -5.68674843 # occ.  2.00000000
 
ion      s     py     pz     px    dxy    dyz    dz2    dxz    dx2    tot
  1  0.000  0.000  0.224  0.000  0.000  0.000  0.000  0.000  0.000  0.224
  2  0.000  0.000  0.224  0.000  0.000  0.000  0.000  0.000  0.000  0.224
tot  0.000  0.000  0.448  0.000  0.000  0.000  0.000  0.000  0.000  0.448
 
band   4 # energy   -5.25033006 # occ.  2.00000000
 
ion      s     py     pz     px    dxy    dyz    dz2    dxz    dx2    tot
  1  0.000  0.298  0.000  0.099  0.000  0.000  0.000  0.000  0.000  0.397
  2  0.000  0.298  0.000  0.099  0.000  0.000  0.000  0.000  0.000  0.397
tot  0.000  0.595  0.000  0.198  0.000  0.000  0.000  0.000  0.000  0.794
 
band   5 # energy    5.01376733 # occ.  0.00000000
 
ion      s     py     pz     px    dxy    dyz    dz2    dxz    dx2    tot
  1  0.007  0.001  0.000  0.003  0.000  0.000  0.000  0.000  0.000  0.011
  2  0.007  0.001  0.000  0.003  0.000  0.000  0.000  0.000  0.000  0.011
tot  0.014  0.002  0.000  0.006  0.000  0.000  0.000  0.000  0.000  0.022
 
band   6 # energy    6.78514167 # occ.  0.00000000
 
ion      s     py     pz     px    dxy    dyz    dz2    dxz    dx2    tot
  1  0.000  0.000  0.292  0.000  0.000  0.000  0.000  0.000  0.000  0.292
  2  0.000  0.000  0.292  0.000  0.000  0.000  0.000  0.000  0.000  0.292
tot  0.000  0.000  0.583  0.000  0.000  0.000  0.000  0.000  0.000  0.583
 
band   7 # energy    8.02097447 # occ.  0.00000000
 
ion      s     py     pz     px    dxy    dyz    dz2    dxz    dx2    tot
  1  0.125  0.027  0.000  0.081  0.000  0.000  0.000  0.000  0.000  0.233
  2  0.125  0.027  0.000  0.081  0.000  0.000  0.000  0.000  0.000  0.233
tot  0.249  0.054  0.000  0.162  0.000  0.000  0.000  0.000  0.000  0.466
 
band   8 # energy    8.57917765 # occ.  0.00000000
 
ion      s     py     pz     px    dxy    dyz    dz2    dxz    dx2    tot
  1  0.000  0.000  0.058  0.000  0.000  0.000  0.000  0.000  0.000  0.058
  2  0.000  0.000  0.058  0.000  0.000  0.000  0.000  0.000  0.000  0.058
tot  0.000  0.000  0.117  0.000  0.000  0.000  0.000  0.000  0.000  0.117
 
band   9 # energy   11.32724064 # occ.  0.00000000
 
ion      s     py     pz     px    dxy    dyz    dz2    dxz    dx2    tot
  1  0.021  0.001  0.000  0.003  0.000  0.000  0.000  0.000  0.000  0.025
  2  0.021  0.001  0.000  0.003  0.000  0.000  0.000  0.000  0.000  0.025
tot  0.042  0.002  0.000  0.005  0.000  0.000  0.000  0.000  0.000  0.050
 
band  10 # energy   14.00383563 # occ.  0.00000000
 
ion      s     py     pz     px    dxy    dyz    dz2    dxz    dx2    tot
  1  0.000  0.229  0.000  0.076  0.000  0.000  0.000  0.000  0.000  0.305
  2  0.000  0.229  0.000  0.076  0.000  0.000  0.000  0.000  0.000  0.305
tot  0.000  0.457  0.000  0.152  0.000  0.000  0.000  0.000  0.000  0.610
 
band  11 # energy   15.45952027 # occ.  0.00000000
 
ion      s     py     pz     px    dxy    dyz    dz2    dxz    dx2    tot
  1  0.132  0.044  0.000  0.133  0.000  0.000  0.000  0.000  0.000  0.310
  2  0.132  0.044  0.000  0.133  0.000  0.000  0.000  0.000  0.000  0.310
tot  0.265  0.089  0.000  0.267  0.000  0.000  0.000  0.000  0.000  0.620
 
band  12 # energy   18.44328471 # occ.  0.00000000
 
ion      s     py     pz     px    dxy    dyz    dz2    dxz    dx2    tot
  1  0.000  0.000  0.075  0.000  0.000  0.000  0.000  0.000  0.000  0.075
  2  0.000  0.000  0.075  0.000  0.000  0.000  0.000  0.000  0.000  0.075
tot  0.000  0.000  0.150  0.000  0.000  0.000  0.000  0.000  0.000  0.150
 
band  13 # energy   20.75856910 # occ.  0.00000000
 
ion      s     py     pz     px    dxy    dyz    dz2    dxz    dx2    tot
  1  0.025  0.006  0.000  0.019  0.000  0.000  0.000  0.000  0.000  0.051
  2  0.025  0.006  0.000  0.019  0.000  0.000  0.000  0.000  0.000  0.051
tot  0.050  0.013  0.000  0.039  0.000  0.000  0.000  0.000  0.000  0.101
 
band  14 # energy   21.85500905 # occ.  0.00000000
 
ion      s     py     pz     px    dxy    dyz    dz2    dxz    dx2    tot
  1  0.000  0.000  0.052  0.000  0.000  0.000  0.000  0.000  0.000  0.052
  2  0.000  0.000  0.052  0.000  0.000  0.000  0.000  0.000  0.000  0.052
tot  0.000  0.000  0.104  0.000  0.000  0.000  0.000  0.000  0.000  0.104
 
band  15 # energy   23.41391982 # occ.  0.00000000
 
ion      s     py     pz     px    dxy    dyz    dz2    dxz    dx2    tot
  1  0.000  0.000  0.000  0.000  0.000  0.000  0.000  0.000  0.000  0.000
  2  0.000  0.000  0.000  0.000  0.000  0.000  0.000  0.000  0.000  0.000
tot  0.000  0.000  0.000  0.000  0.000  0.000  0.000  0.000  0.000  0.000
 
band  16 # energy   24.34226269 # occ.  0.00000000
 
ion      s     py     pz     px    dxy    dyz    dz2    dxz    dx2    tot
  1  0.012  0.019  0.000  0.057  0.000  0.000  0.000  0.000  0.000  0.088
  2  0.012  0.019  0.000  0.057  0.000  0.000  0.000  0.000  0.000  0.088
tot  0.023  0.038  0.000  0.114  0.000  0.000  0.000  0.000  0.000  0.175
 

 k-point    6 :    0.33333333 0.00000000 0.00000000     weight = 0.02666667

band   1 # energy  -16.96050542 # occ.  2.00000000
 
ion      s     py     pz     px    dxy    dyz    dz2    dxz    dx2    tot
  1  0.284  0.013  0.000  0.040  0.000  0.000  0.000  0.000  0.000  0.337
  2  0.284  0.013  0.000  0.040  0.000  0.000  0.000  0.000  0.000  0.337
tot  0.567  0.027  0.000  0.080  0.000  0.000  0.000  0.000  0.000  0.674
 
band   2 # energy   -9.65478893 # occ.  2.00000000
 
ion      s     py     pz     px    dxy    dyz    dz2    dxz    dx2    tot
  1  0.137  0.058  0.000  0.173  0.000  0.000  0.000  0.000  0.000  0.367
  2  0.137  0.058  0.000  0.173  0.000  0.000  0.000  0.000  0.000  0.367
tot  0.273  0.115  0.000  0.346  0.000  0.000  0.000  0.000  0.000  0.734
 
band   3 # energy   -5.82078964 # occ.  2.00000000
 
ion      s     py     pz     px    dxy    dyz    dz2    dxz    dx2    tot
  1  0.000  0.296  0.000  0.099  0.000  0.000  0.000  0.000  0.000  0.395
  2  0.000  0.296  0.000  0.099  0.000  0.000  0.000  0.000  0.000  0.395
tot  0.000  0.593  0.000  0.198  0.000  0.000  0.000  0.000  0.000  0.790
 
band   4 # energy   -4.64577859 # occ.  2.00000000
 
ion      s     py     pz     px    dxy    dyz    dz2    dxz    dx2    tot
  1  0.000  0.000  0.230  0.000  0.000  0.000  0.000  0.000  0.000  0.230
  2  0.000  0.000  0.230  0.000  0.000  0.000  0.000  0.000  0.000  0.230