 
             +---------------------------------------------------+
             |                                                   |
             |                   WANNIER90                       |
             |                                                   |
             +---------------------------------------------------+
             |                                                   |
             |        Welcome to the Maximally-Localized         |
             |        Generalized Wannier Functions code         |
             |            http://www.wannier.org                 |
             |                                                   |
             |  Wannier90 Authors:                               |
             |    Arash A. Mostofi   (Imperial College London)   |
             |    Jonathan R. Yates  (University of Oxford)      |
             |    Young-Su Lee       (KIST, S. Korea)            |
             |                                                   |
             |  Wannier90 Contributors:                          |
             |    Matthew Shelley    (Imperial College London)   |
             |    Nicolas Poilvert   (MIT)                       |
             |                                                   |
             |  Wannier77 Authors:                               |
             |    Nicola Marzari     (University of Oxford)      |
             |    Ivo Souza          (UC Berkeley)               |
             |    David Vanderbilt   (Rutgers University)        |
             |                                                   |
             |  Please cite                                      |
             |                                                   |
             |  [ref] "Wannier90: A Tool for Obtaining Maximally |
             |         Localised Wannier Functions"              |
             |        A. A. Mostofi, J. R. Yates, Y.-S. Lee,     |
             |        I. Souza, D. Vanderbilt and N. Marzari     |
             |        Comput. Phys. Commun. 178, 685 (2008)      |
             |                                                   |
             |  in any publications arising from the use of      |
             |  this code. For the method please cite            |
             |                                                   |
             |  [ref] "Maximally Localized Generalised Wannier   |
             |         Functions for Composite Energy Bands"     |
             |         N. Marzari and D. Vanderbilt              |
             |         Phys. Rev. B 56 12847 (1997)              |
             |                                                   |
             |  [ref] "Maximally Localized Wannier Functions     |
             |         for Entangled Energy Bands"               |
             |         I. Souza, N. Marzari and D. Vanderbilt    |
             |         Phys. Rev. B 65 035109 (2001)             |
             |                                                   |
             |                                                   |
             | Copyright (c) 1996-2010                           |
             |        A. A. Mostofi, J. R. Yates, Y.-S. Lee,     |
             |        I. Souza, D. Vanderbilt and N. Marzari     |
             |                                                   |
             |        Release: 1.2        24th Jan 2010          |
             |                                                   |
             | This program is free software; you can            |
             | redistribute it and/or modify it under the terms  |
             | of the GNU General Public License as published by |
             | the Free Software Foundation; either version 2 of |
             | the License, or (at your option) any later version|
             |                                                   |
             | This program is distributed in the hope that it   |
             | will be useful, but WITHOUT ANY WARRANTY; without |
             | even the implied warranty of MERCHANTABILITY or   |
             | FITNESS FOR A PARTICULAR PURPOSE. See the GNU     |
             | General Public License for more details.          |
             |                                                   |
             | You should have received a copy of the GNU General|
             | Public License along with this program; if not,   |
             | write to the Free Software Foundation, Inc.,      |
             | 675 Mass Ave, Cambridge, MA 02139, USA.           |
             |                                                   |
             +---------------------------------------------------+
             |    Execution started on 16May2012 at 16:35:43     |
             +---------------------------------------------------+

 Wannier90 is running in LIBRARY MODE

 Setting up k-point neighbours...


 Ignoring <num_bands> in input file
 
                                    ------
                                    SYSTEM
                                    ------
 
                              Lattice Vectors (Ang)
                    a_1     1.230500   2.131289   0.000000
                    a_2    -1.230500   2.131289   0.000000
                    a_3     0.000000   0.000000   7.104295
 
                   Unit Cell Volume:      37.26275  (Ang^3)
 
                        Reciprocal-Space Vectors (Ang^-1)
                    b_1     2.553103   1.474034   0.000000
                    b_2    -2.553103   1.474034   0.000000
                    b_3     0.000000   0.000000   0.884421
  
 *----------------------------------------------------------------------------*
 |   Site       Fractional Coordinate          Cartesian Coordinate (Ang)     |
 +----------------------------------------------------------------------------+
 | C    1   0.33333   0.33333   0.00000   |    0.00000   1.42086   0.00000    |
 | C    2   0.66667   0.66667   0.00000   |    0.00000   2.84172   0.00000    |
 *----------------------------------------------------------------------------*
  
                                ------------
                                K-POINT GRID
                                ------------
  
             Grid size = 15 x 15 x  1      Total points =  225
  
  
 *---------------------------------- MAIN ------------------------------------*
 |  Number of Wannier Functions               :                 5             |
 |  Number of input Bloch states              :                16             |
 |  Output verbosity (1=low, 5=high)          :                 1             |
 |  Timing Level (1=low, 5=high)              :                 1             |
 |  Optimisation (0=memory, 3=speed)          :                 3             |
 |  Length Unit                               :               Ang             |
 |  Post-processing setup (write *.nnkp)      :                 F             |
 |  Using Gamma-only branch of algorithms     :                 F             |
 |  Wavefunction (UNK) file-type              :       unformatted             |
 |  Wavefunction spin channel                 :                up             |
 *----------------------------------------------------------------------------*
 *------------------------------- WANNIERISE ---------------------------------*
 |  Total number of iterations                :               500             |
 |  Number of CG steps before reset           :                 5             |
 |  Trial step length for line search         :             2.000             |
 |  Convergence tolerence                     :         0.100E-09             |
 |  Convergence window                        :                -1             |
 |  Iterations between writing output         :                 1             |
 |  Iterations between backing up to disk     :               100             |
 |  Write r^2_nm to file                      :                 F             |
 |  Write xyz WF centres to file              :                 F             |
 |  Use guiding centre to control phases      :                 T             |
 |  Iterations before starting guiding centres:                 0             |
 |  Iterations between using guiding centres  :                 1             |
 *----------------------------------------------------------------------------*
 *-------------------------------- PLOTTING ----------------------------------*
 |  Plotting Wannier functions                :                 T             |
 |   Size of supercell for plotting           :                 2             |
 |   Plotting mode (molecule or crystal)      :           crystal             |
 |   Plotting format                          :          xcrysden             |
 *----------------------------------------------------------------------------*
 |  Plotting Fermi surface                    :                 T             |
 |   Number of plotting points (along b_1)    :                50             |
 |   Plotting format                          :          xcrysden             |
 *----------------------------------------------------------------------------*
 |  Plotting interpolated bandstructure       :                 T             |
 |   Number of K-path sections                :                 3             |
 |   Divisions along first K-path section     :               100             |
 |   Output format                            :           gnuplot             |
 |   Output mode                              :               s-k             |
 *----------------------------------------------------------------------------*
 |   K-space path sections:                                                   |
 |    From:  G    0.000  0.000  0.000     To:  K    0.333 -0.333  0.000       |
 |    From:  K    0.333 -0.333  0.000     To:  M    0.500  0.000  0.000       |
 |    From:  M    0.500  0.000  0.000     To:  G    0.000  0.000  0.000       |
 *----------------------------------------------------------------------------*
 |  Plotting Hamiltonian in WF basis          :                 T             |
 *----------------------------------------------------------------------------*
 Time to read parameters        0.001 (sec)

 *---------------------------------- K-MESH ----------------------------------*
 +----------------------------------------------------------------------------+
 |                    Distance to Nearest-Neighbour Shells                    |
 |                    ------------------------------------                    |
 |          Shell             Distance (Ang^-1)          Multiplicity         |
 |          -----             -----------------          ------------         |
 |             1                   0.196538                      6            |
 |             2                   0.340414                      6            |
 |             3                   0.393076                      6            |
 |             4                   0.519990                     12            |
 |             5                   0.589614                      6            |
 |             6                   0.680827                      6            |
 |             7                   0.708628                     12            |
 |             8                   0.786152                      6            |
 |             9                   0.856689                     12            |
 |            10                   0.884421                      2            |
 |            11                   0.900650                     12            |
 |            12                   0.905995                     12            |
 +----------------------------------------------------------------------------+
 | The b-vectors are chosen automatically                                     |
 | SVD found small singular value, Rejecting this shell and trying the next   |
 | SVD found small singular value, Rejecting this shell and trying the next   |
 | SVD found small singular value, Rejecting this shell and trying the next   |
 | SVD found small singular value, Rejecting this shell and trying the next   |
 | SVD found small singular value, Rejecting this shell and trying the next   |
 | The following shells are used:   1, 10                                     |
 +----------------------------------------------------------------------------+
 |                        Shell   # Nearest-Neighbours                        |
 |                        -----   --------------------                        |
 |                          1               6                                 |
 |                         10               2                                 |
 +----------------------------------------------------------------------------+
 | Completeness relation is fully satisfied [Eq. (B1), PRB 56, 12847 (1997)]  |
 +----------------------------------------------------------------------------+
 |                  b_k Vectors (Ang^-1) and Weights (Ang^2)                  |
 |                  ----------------------------------------                  |
 |            No.         b_k(x)      b_k(y)      b_k(z)        w_b           |
 |            ---        --------------------------------     --------        |
 |             1         0.170207    0.098269    0.000000     8.629508        |
 |             2        -0.170207   -0.098269    0.000000     8.629508        |
 |             3         0.170207   -0.098269    0.000000     8.629508        |
 |             4        -0.170207    0.098269    0.000000     8.629508        |
 |             5         0.000000   -0.196538    0.000000     8.629508        |
 |             6         0.000000    0.196538    0.000000     8.629508        |
 |             7         0.000000    0.000000    0.884421     0.639223        |
 |             8         0.000000    0.000000   -0.884421     0.639223        |
 +----------------------------------------------------------------------------+
 |                           b_k Directions (Ang^-1)                          |
 |                           -----------------------                          |
 |            No.           x           y           z                         |
 |            ---        --------------------------------                     |
 |             1         0.170207    0.098269    0.000000                     |
 |             2         0.170207   -0.098269    0.000000                     |
 |             3         0.000000   -0.196538    0.000000                     |
 |             4         0.000000    0.000000    0.884421                     |
 +----------------------------------------------------------------------------+
  
 Time to write kmesh            0.147 (sec)

 Finished setting up k-point neighbours.

 Returning to pw2wannier90 at 16:35:43 

 Resuming Wannier90 at 16:36:52 


 Ignoring <num_bands> in input file
 Ignoring <mp_grid> in input file
 Ignoring <unit_cell_cart> in input file
 Ignoring <kpoints> in input file
 Ignoring <atoms_cart> in input file
 
                                    ------
                                    SYSTEM
                                    ------
 
                              Lattice Vectors (Ang)
                    a_1     1.230500   2.131289   0.000000
                    a_2    -1.230500   2.131289   0.000000
                    a_3     0.000000   0.000000   7.104295
 
                   Unit Cell Volume:      37.26275  (Ang^3)
 
                        Reciprocal-Space Vectors (Ang^-1)
                    b_1     2.553103   1.474034   0.000000
                    b_2    -2.553103   1.474034   0.000000
                    b_3     0.000000   0.000000   0.884421
  
 *----------------------------------------------------------------------------*
 |   Site       Fractional Coordinate          Cartesian Coordinate (Ang)     |
 +----------------------------------------------------------------------------+
 | C    1   0.33333   0.33333   0.00000   |    0.00000   1.42086   0.00000    |
 | C    2   0.66667   0.66667   0.00000   |    0.00000   2.84172   0.00000    |
 *----------------------------------------------------------------------------*
  
                                ------------
                                K-POINT GRID
                                ------------
  
             Grid size = 15 x 15 x  1      Total points =  225
  
  
 *---------------------------------- MAIN ------------------------------------*
 |  Number of Wannier Functions               :                 5             |
 |  Number of input Bloch states              :                16             |
 |  Output verbosity (1=low, 5=high)          :                 1             |
 |  Timing Level (1=low, 5=high)              :                 1             |
 |  Optimisation (0=memory, 3=speed)          :                 3             |
 |  Length Unit                               :               Ang             |
 |  Post-processing setup (write *.nnkp)      :                 F             |
 |  Using Gamma-only branch of algorithms     :                 F             |
 |  Wavefunction (UNK) file-type              :       unformatted             |
 |  Wavefunction spin channel                 :                up             |
 *----------------------------------------------------------------------------*
 *------------------------------- WANNIERISE ---------------------------------*
 |  Total number of iterations                :               500             |
 |  Number of CG steps before reset           :                 5             |
 |  Trial step length for line search         :             2.000             |
 |  Convergence tolerence                     :         0.100E-09             |
 |  Convergence window                        :                -1             |
 |  Iterations between writing output         :                 1             |
 |  Iterations between backing up to disk     :               100             |
 |  Write r^2_nm to file                      :                 F             |
 |  Write xyz WF centres to file              :                 F             |
 |  Use guiding centre to control phases      :                 T             |
 |  Iterations before starting guiding centres:                 0             |
 |  Iterations between using guiding centres  :                 1             |
 *----------------------------------------------------------------------------*
 *------------------------------- DISENTANGLE --------------------------------*
 |  Using band disentanglement                :                 T             |
 |  Total number of iterations                :             10000             |
 |  Mixing ratio                              :             0.500             |
 |  Convergence tolerence                     :         1.000E-10             |
 |  Convergence window                        :                 3             |
 *----------------------------------------------------------------------------*
 *-------------------------------- PLOTTING ----------------------------------*
 |  Plotting Wannier functions                :                 T             |
 |   Size of supercell for plotting           :                 2             |
 |   Plotting mode (molecule or crystal)      :           crystal             |
 |   Plotting format                          :          xcrysden             |
 *----------------------------------------------------------------------------*
 |  Plotting Fermi surface                    :                 T             |
 |   Number of plotting points (along b_1)    :                50             |
 |   Plotting format                          :          xcrysden             |
 *----------------------------------------------------------------------------*
 |  Plotting interpolated bandstructure       :                 T             |
 |   Number of K-path sections                :                 3             |
 |   Divisions along first K-path section     :               100             |
 |   Output format                            :           gnuplot             |
 |   Output mode                              :               s-k             |
 *----------------------------------------------------------------------------*
 |   K-space path sections:                                                   |
 |    From:  G    0.000  0.000  0.000     To:  K    0.333 -0.333  0.000       |
 |    From:  K    0.333 -0.333  0.000     To:  M    0.500  0.000  0.000       |
 |    From:  M    0.500  0.000  0.000     To:  G    0.000  0.000  0.000       |
 *----------------------------------------------------------------------------*
 |  Plotting Hamiltonian in WF basis          :                 T             |
 *----------------------------------------------------------------------------*
 Time to read parameters        0.010 (sec)

 *---------------------------------- K-MESH ----------------------------------*
 +----------------------------------------------------------------------------+
 |                    Distance to Nearest-Neighbour Shells                    |
 |                    ------------------------------------                    |
 |          Shell             Distance (Ang^-1)          Multiplicity         |
 |          -----             -----------------          ------------         |
 |             1                   0.196538                      6            |
 |             2                   0.340414                      6            |
 |             3                   0.393076                      6            |
 |             4                   0.519990                     12            |
 |             5                   0.589614                      6            |
 |             6                   0.680827                      6            |
 |             7                   0.708628                     12            |
 |             8                   0.786152                      6            |
 |             9                   0.856689                     12            |
 |            10                   0.884421                      2            |
 |            11                   0.900650                     12            |
 |            12                   0.905995                     12            |
 +----------------------------------------------------------------------------+
 | The b-vectors are chosen automatically                                     |
 | SVD found small singular value, Rejecting this shell and trying the next   |
 | SVD found small singular value, Rejecting this shell and trying the next   |
 | SVD found small singular value, Rejecting this shell and trying the next   |
 | SVD found small singular value, Rejecting this shell and trying the next   |
 | SVD found small singular value, Rejecting this shell and trying the next   |
 | The following shells are used:   1, 10                                     |
 +----------------------------------------------------------------------------+
 |                        Shell   # Nearest-Neighbours                        |
 |                        -----   --------------------                        |
 |                          1               6                                 |
 |                         10               2                                 |
 +----------------------------------------------------------------------------+
 | Completeness relation is fully satisfied [Eq. (B1), PRB 56, 12847 (1997)]  |
 +----------------------------------------------------------------------------+
 |                  b_k Vectors (Ang^-1) and Weights (Ang^2)                  |
 |                  ----------------------------------------                  |
 |            No.         b_k(x)      b_k(y)      b_k(z)        w_b           |
 |            ---        --------------------------------     --------        |
 |             1         0.170207    0.098269    0.000000     8.629508        |
 |             2        -0.170207   -0.098269    0.000000     8.629508        |
 |             3         0.170207   -0.098269    0.000000     8.629508        |
 |             4        -0.170207    0.098269    0.000000     8.629508        |
 |             5         0.000000   -0.196538    0.000000     8.629508        |
 |             6         0.000000    0.196538    0.000000     8.629508        |
 |             7         0.000000    0.000000    0.884421     0.639223        |
 |             8         0.000000    0.000000   -0.884421     0.639223        |
 +----------------------------------------------------------------------------+
 |                           b_k Directions (Ang^-1)                          |
 |                           -----------------------                          |
 |            No.           x           y           z                         |
 |            ---        --------------------------------                     |
 |             1         0.170207    0.098269    0.000000                     |
 |             2         0.170207   -0.098269    0.000000                     |
 |             3         0.000000   -0.196538    0.000000                     |
 |             4         0.000000    0.000000    0.884421                     |
 +----------------------------------------------------------------------------+
  
 Time to get kmesh              0.146 (sec)

 *------------------------------- DISENTANGLE --------------------------------*
 +----------------------------------------------------------------------------+
 |                              Energy  Windows                               |
 |                              ---------------                               |
 |                   Outer:  -19.55053  to   15.00000  (eV)                   |
 |                   Inner:  -19.55053  to    2.00000  (eV)                   |
 +----------------------------------------------------------------------------+
   Number of target bands to extract:    5

                   Unitarised projection of Wannier functions                  
                   ------------------------------------------                  
   A_mn = <psi_m|g_n> --> S = A.A^+ --> U = S^-1/2.A
   In dis_project... done
   Using an inner window (linner = T)
   In dis_proj_froz... done

                   Extraction of optimally-connected subspace                  
                   ------------------------------------------                  
 +---------------------------------------------------------------------+<-- DIS
 |  Iter     Omega_I(i-1)      Omega_I(i)      Delta (frac.)    Time   |<-- DIS
 +---------------------------------------------------------------------+<-- DIS
       1       2.94331769       2.94185705       4.965E-04     64.83    <-- DIS
       2       2.94158419       2.94178356      -6.777E-05     64.85    <-- DIS
       3       2.94160398       2.94174802      -4.896E-05     64.87    <-- DIS
       4       2.94164392       2.94172458      -2.742E-05     64.89    <-- DIS
       5       2.94167528       2.94170709      -1.081E-05     64.91    <-- DIS
       6       2.94169373       2.94169342       1.055E-07     64.93    <-- DIS
       7       2.94170182       2.94168253       6.555E-06     64.95    <-- DIS
       8       2.94170307       2.94167379       9.952E-06     64.97    <-- DIS
       9       2.94170034       2.94166675       1.142E-05     64.99    <-- DIS
      10       2.94169558       2.94166106       1.173E-05     65.01    <-- DIS
      11       2.94169000       2.94165647       1.140E-05     65.03    <-- DIS
      12       2.94168431       2.94165275       1.073E-05     65.05    <-- DIS
      13       2.94167888       2.94164975       9.904E-06     65.07    <-- DIS
      14       2.94167389       2.94164732       9.035E-06     65.09    <-- DIS
      15       2.94166942       2.94164535       8.180E-06     65.12    <-- DIS
      16       2.94166545       2.94164376       7.372E-06     65.14    <-- DIS
      17       2.94166196       2.94164247       6.625E-06     65.16    <-- DIS
      18       2.94165891       2.94164143       5.942E-06     65.18    <-- DIS
      19       2.94165625       2.94164059       5.325E-06     65.20    <-- DIS
      20       2.94165393       2.94163991       4.769E-06     65.22    <-- DIS
      21       2.94165192       2.94163936       4.270E-06     65.24    <-- DIS
      22       2.94165015       2.94163891       3.823E-06     65.26    <-- DIS
      23       2.94164862       2.94163855       3.423E-06     65.28    <-- DIS
      24       2.94164727       2.94163825       3.066E-06     65.30    <-- DIS
      25       2.94164610       2.94163802       2.747E-06     65.32    <-- DIS
      26       2.94164507       2.94163783       2.461E-06     65.34    <-- DIS
      27       2.94164416       2.94163767       2.206E-06     65.36    <-- DIS
      28       2.94164336       2.94163755       1.978E-06     65.38    <-- DIS
      29       2.94164266       2.94163744       1.774E-06     65.41    <-- DIS
      30       2.94164204       2.94163736       1.591E-06     65.43    <-- DIS
      31       2.94164150       2.94163730       1.428E-06     65.45    <-- DIS
      32       2.94164101       2.94163724       1.281E-06     65.47    <-- DIS
      33       2.94164058       2.94163720       1.150E-06     65.49    <-- DIS
      34       2.94164020       2.94163716       1.033E-06     65.51    <-- DIS
      35       2.94163986       2.94163713       9.273E-07     65.53    <-- DIS
      36       2.94163956       2.94163711       8.329E-07     65.55    <-- DIS
      37       2.94163929       2.94163709       7.481E-07     65.57    <-- DIS
      38       2.94163905       2.94163708       6.721E-07     65.59    <-- DIS
      39       2.94163884       2.94163706       6.039E-07     65.61    <-- DIS
      40       2.94163865       2.94163705       5.427E-07     65.63    <-- DIS
      41       2.94163848       2.94163705       4.877E-07     65.65    <-- DIS
      42       2.94163833       2.94163704       4.383E-07     65.67    <-- DIS
      43       2.94163819       2.94163703       3.940E-07     65.70    <-- DIS
      44       2.94163807       2.94163703       3.542E-07     65.72    <-- DIS
      45       2.94163796       2.94163703       3.184E-07     65.74    <-- DIS
      46       2.94163787       2.94163702       2.863E-07     65.76    <-- DIS
      47       2.94163778       2.94163702       2.574E-07     65.78    <-- DIS
      48       2.94163770       2.94163702       2.314E-07     65.80    <-- DIS
      49       2.94163763       2.94163702       2.081E-07     65.82    <-- DIS
      50       2.94163757       2.94163702       1.871E-07     65.84    <-- DIS
      51       2.94163751       2.94163702       1.683E-07     65.86    <-- DIS
      52       2.94163746       2.94163702       1.514E-07     65.88    <-- DIS
      53       2.94163742       2.94163702       1.361E-07     65.91    <-- DIS
      54       2.94163737       2.94163701       1.224E-07     65.93    <-- DIS
      55       2.94163734       2.94163701       1.101E-07     65.96    <-- DIS
      56       2.94163731       2.94163701       9.903E-08     65.98    <-- DIS
      57       2.94163728       2.94163701       8.908E-08     66.00    <-- DIS
      58       2.94163725       2.94163701       8.012E-08     66.02    <-- DIS
      59       2.94163723       2.94163701       7.207E-08     66.04    <-- DIS
      60       2.94163720       2.94163701       6.482E-08     66.06    <-- DIS
      61       2.94163718       2.94163701       5.831E-08     66.08    <-- DIS
      62       2.94163717       2.94163701       5.245E-08     66.10    <-- DIS
      63       2.94163715       2.94163701       4.718E-08     66.12    <-- DIS
      64       2.94163714       2.94163701       4.244E-08     66.15    <-- DIS
      65       2.94163713       2.94163701       3.818E-08     66.17    <-- DIS
      66       2.94163711       2.94163701       3.434E-08     66.19    <-- DIS
      67       2.94163710       2.94163701       3.089E-08     66.21    <-- DIS
      68       2.94163709       2.94163701       2.779E-08     66.23    <-- DIS
      69       2.94163709       2.94163701       2.500E-08     66.25    <-- DIS
      70       2.94163708       2.94163701       2.249E-08     66.27    <-- DIS
      71       2.94163707       2.94163701       2.023E-08     66.29    <-- DIS
      72       2.94163707       2.94163701       1.820E-08     66.31    <-- DIS
      73       2.94163706       2.94163701       1.637E-08     66.33    <-- DIS
      74       2.94163706       2.94163701       1.473E-08     66.35    <-- DIS
      75       2.94163705       2.94163701       1.325E-08     66.37    <-- DIS
      76       2.94163705       2.94163701       1.192E-08     66.40    <-- DIS
      77       2.94163704       2.94163701       1.072E-08     66.42    <-- DIS
      78       2.94163704       2.94163701       9.646E-09     66.44    <-- DIS
      79       2.94163704       2.94163701       8.678E-09     66.46    <-- DIS
      80       2.94163704       2.94163701       7.807E-09     66.48    <-- DIS
      81       2.94163703       2.94163701       7.023E-09     66.50    <-- DIS
      82       2.94163703       2.94163701       6.318E-09     66.52    <-- DIS
      83       2.94163703       2.94163701       5.684E-09     66.54    <-- DIS
      84       2.94163703       2.94163701       5.113E-09     66.56    <-- DIS
      85       2.94163703       2.94163701       4.600E-09     66.58    <-- DIS
      86       2.94163702       2.94163701       4.138E-09     66.60    <-- DIS
      87       2.94163702       2.94163701       3.723E-09     66.62    <-- DIS
      88       2.94163702       2.94163701       3.349E-09     66.64    <-- DIS
      89       2.94163702       2.94163701       3.013E-09     66.66    <-- DIS
      90       2.94163702       2.94163701       2.711E-09     66.69    <-- DIS
      91       2.94163702       2.94163701       2.439E-09     66.71    <-- DIS
      92       2.94163702       2.94163701       2.194E-09     66.73    <-- DIS
      93       2.94163702       2.94163701       1.974E-09     66.75    <-- DIS
      94       2.94163702       2.94163701       1.776E-09     66.77    <-- DIS
      95       2.94163702       2.94163701       1.597E-09     66.79    <-- DIS
      96       2.94163702       2.94163701       1.437E-09     66.81    <-- DIS
      97       2.94163702       2.94163701       1.293E-09     66.83    <-- DIS
      98       2.94163702       2.94163701       1.163E-09     66.85    <-- DIS
      99       2.94163702       2.94163701       1.046E-09     66.87    <-- DIS
     100       2.94163702       2.94163701       9.412E-10     66.89    <-- DIS
     101       2.94163702       2.94163701       8.468E-10     66.92    <-- DIS
     102       2.94163701       2.94163701       7.618E-10     66.94    <-- DIS
     103       2.94163701       2.94163701       6.853E-10     66.96    <-- DIS
     104       2.94163701       2.94163701       6.165E-10     66.98    <-- DIS
     105       2.94163701       2.94163701       5.547E-10     67.00    <-- DIS
     106       2.94163701       2.94163701       4.990E-10     67.02    <-- DIS
     107       2.94163701       2.94163701       4.489E-10     67.04    <-- DIS
     108       2.94163701       2.94163701       4.038E-10     67.06    <-- DIS
     109       2.94163701       2.94163701       3.633E-10     67.08    <-- DIS
     110       2.94163701       2.94163701       3.268E-10     67.10    <-- DIS
     111       2.94163701       2.94163701       2.940E-10     67.12    <-- DIS
     112       2.94163701       2.94163701       2.645E-10     67.14    <-- DIS
     113       2.94163701       2.94163701       2.380E-10     67.16    <-- DIS
     114       2.94163701       2.94163701       2.141E-10     67.18    <-- DIS
     115       2.94163701       2.94163701       1.926E-10     67.20    <-- DIS
     116       2.94163701       2.94163701       1.733E-10     67.23    <-- DIS
     117       2.94163701       2.94163701       1.559E-10     67.25    <-- DIS
     118       2.94163701       2.94163701       1.402E-10     67.27    <-- DIS
     119       2.94163701       2.94163701       1.262E-10     67.29    <-- DIS
     120       2.94163701       2.94163701       1.135E-10     67.31    <-- DIS
     121       2.94163701       2.94163701       1.021E-10     67.33    <-- DIS
     122       2.94163701       2.94163701       9.186E-11     67.35    <-- DIS
     123       2.94163701       2.94163701       8.264E-11     67.37    <-- DIS
     124       2.94163701       2.94163701       7.435E-11     67.39    <-- DIS

             <<<      Delta < 1.000E-10  over  3 iterations     >>>
             <<< Disentanglement convergence criteria satisfied >>>

        Final Omega_I     2.94163701 (Ang^2)

 +----------------------------------------------------------------------------+


 Writing checkpoint file wannier90.chk... done

 Time to disentangle            2.635 (sec)
 
 *------------------------------- WANNIERISE ---------------------------------*
 +--------------------------------------------------------------------+<-- CONV
 | Iter  Delta Spread     RMS Gradient      Spread (Ang^2)      Time  |<-- CONV
 +--------------------------------------------------------------------+<-- CONV
 
 ------------------------------------------------------------------------------
 Initial State
  WF centre and spread    1  (  0.000000,  1.420859,  0.000000 )     0.89691551
  WF centre and spread    2  (  0.000000,  2.841718,  0.000000 )     0.89691551
  WF centre and spread    3  (  0.615250,  1.065644,  0.000000 )     0.60967339
  WF centre and spread    4  (  0.000000,  2.131289,  0.000000 )     0.60967339
  WF centre and spread    5  ( -0.615250,  1.065644,  0.000000 )     0.60967339
  Sum of centres and spreads (  0.000000,  8.525154,  0.000000 )     3.62285119
 
      0     0.362E+01     0.0000000000        3.6228511930      67.42  <-- CONV
        O_D=      0.0170596 O_OD=      0.6641546 O_TOT=      3.6228512 <-- SPRD
 ------------------------------------------------------------------------------
 Cycle:      1
  WF centre and spread    1  (  0.000000,  1.420859,  0.000000 )     0.89699468
  WF centre and spread    2  (  0.000000,  2.841718,  0.000000 )     0.89699468
  WF centre and spread    3  (  0.615250,  1.065644,  0.000000 )     0.60389163
  WF centre and spread    4  (  0.000000,  2.131289,  0.000000 )     0.60389163
  WF centre and spread    5  ( -0.615250,  1.065644,  0.000000 )     0.60389163
  Sum of centres and spreads (  0.000000,  8.525154,  0.000000 )     3.60566426
 
      1    -0.172E-01     0.0709682488        3.6056642575      67.44  <-- CONV
        O_D=      0.0172180 O_OD=      0.6468093 O_TOT=      3.6056643 <-- SPRD
 Delta: O_D=  0.1583513E-03 O_OD= -0.1734529E-01 O_TOT= -0.1718694E-01 <-- DLTA
 ------------------------------------------------------------------------------
 Cycle:      2
  WF centre and spread    1  (  0.000000,  1.420859,  0.000000 )     0.89577310
  WF centre and spread    2  (  0.000000,  2.841718,  0.000000 )     0.89577310
  WF centre and spread    3  (  0.615250,  1.065644,  0.000000 )     0.60312784
  WF centre and spread    4  (  0.000000,  2.131289,  0.000000 )     0.60312784
  WF centre and spread    5  ( -0.615250,  1.065644,  0.000000 )     0.60312784
  Sum of centres and spreads (  0.000000,  8.525154,  0.000000 )     3.60092972
 
      2    -0.473E-02     0.0880160645        3.6009297223      67.47  <-- CONV
        O_D=      0.0147748 O_OD=      0.6445179 O_TOT=      3.6009297 <-- SPRD
 Delta: O_D= -0.2443176E-02 O_OD= -0.2291360E-02 O_TOT= -0.4734535E-02 <-- DLTA
 ------------------------------------------------------------------------------
 Cycle:      3
  WF centre and spread    1  (  0.000000,  1.420859,  0.000000 )     0.89558462
  WF centre and spread    2  (  0.000000,  2.841718,  0.000000 )     0.89558462
  WF centre and spread    3  (  0.615250,  1.065644,  0.000000 )     0.60285186
  WF centre and spread    4  (  0.000000,  2.131289,  0.000000 )     0.60285186
  WF centre and spread    5  ( -0.615250,  1.065644,  0.000000 )     0.60285186
  Sum of centres and spreads (  0.000000,  8.525154,  0.000000 )     3.59972482
 
      3    -0.120E-02     0.0357999513        3.5997248163      67.49  <-- CONV
        O_D=      0.0143978 O_OD=      0.6436900 O_TOT=      3.5997248 <-- SPRD
 Delta: O_D= -0.3769490E-03 O_OD= -0.8279570E-03 O_TOT= -0.1204906E-02 <-- DLTA
 ------------------------------------------------------------------------------
 Cycle:      4
  WF centre and spread    1  (  0.000000,  1.420859,  0.000000 )     0.89547589
  WF centre and spread    2  (  0.000000,  2.841718,  0.000000 )     0.89547589
  WF centre and spread    3  (  0.615250,  1.065644,  0.000000 )     0.60273177
  WF centre and spread    4  (  0.000000,  2.131289,  0.000000 )     0.60273177
  WF centre and spread    5  ( -0.615250,  1.065644,  0.000000 )     0.60273177
  Sum of centres and spreads (  0.000000,  8.525154,  0.000000 )     3.59914708
 
      4    -0.578E-03     0.0232807690        3.5991470811      67.51  <-- CONV
        O_D=      0.0141804 O_OD=      0.6433297 O_TOT=      3.5991471 <-- SPRD
 Delta: O_D= -0.2174634E-03 O_OD= -0.3602718E-03 O_TOT= -0.5777352E-03 <-- DLTA
 ------------------------------------------------------------------------------
 Cycle:      5
  WF centre and spread    1  (  0.000000,  1.420859,  0.000000 )     0.89539218
  WF centre and spread    2  (  0.000000,  2.841718,  0.000000 )     0.89539218
  WF centre and spread    3  (  0.615250,  1.065644,  0.000000 )     0.60270703
  WF centre and spread    4  (  0.000000,  2.131289,  0.000000 )     0.60270703
  WF centre and spread    5  ( -0.615250,  1.065644,  0.000000 )     0.60270703
  Sum of centres and spreads (  0.000000,  8.525154,  0.000000 )     3.59890546
 
      5    -0.242E-03     0.0164123002        3.5989054593      67.53  <-- CONV
        O_D=      0.0140129 O_OD=      0.6432555 O_TOT=      3.5989055 <-- SPRD
 Delta: O_D= -0.1674238E-03 O_OD= -0.7419808E-04 O_TOT= -0.2416218E-03 <-- DLTA
 ------------------------------------------------------------------------------
 Cycle:      6
  WF centre and spread    1  (  0.000000,  1.420859,  0.000000 )     0.89536879
  WF centre and spread    2  (  0.000000,  2.841718,  0.000000 )     0.89536879
  WF centre and spread    3  (  0.615250,  1.065644,  0.000000 )     0.60270222
  WF centre and spread    4  (  0.000000,  2.131289,  0.000000 )     0.60270222
  WF centre and spread    5  ( -0.615250,  1.065644,  0.000000 )     0.60270222
  Sum of centres and spreads (  0.000000,  8.525154,  0.000000 )     3.59884426
 
      6    -0.612E-04     0.0088584262        3.5988442597      67.56  <-- CONV
        O_D=      0.0139662 O_OD=      0.6432411 O_TOT=      3.5988443 <-- SPRD
 Delta: O_D= -0.4676920E-04 O_OD= -0.1443035E-04 O_TOT= -0.6119955E-04 <-- DLTA
 ------------------------------------------------------------------------------
 Cycle:      7
  WF centre and spread    1  (  0.000000,  1.420859,  0.000000 )     0.89536486
  WF centre and spread    2  (  0.000000,  2.841718,  0.000000 )     0.89536486
  WF centre and spread    3  (  0.615250,  1.065644,  0.000000 )     0.60270042
  WF centre and spread    4  (  0.000000,  2.131289,  0.000000 )     0.60270042
  WF centre and spread    5  ( -0.615250,  1.065644,  0.000000 )     0.60270042
  Sum of centres and spreads (  0.000000,  8.525154,  0.000000 )     3.59883096
 
      7    -0.133E-04     0.0043595354        3.5988309639      67.58  <-- CONV
        O_D=      0.0139583 O_OD=      0.6432356 O_TOT=      3.5988310 <-- SPRD
 Delta: O_D= -0.7868691E-05 O_OD= -0.5427159E-05 O_TOT= -0.1329585E-04 <-- DLTA
 ------------------------------------------------------------------------------
 Cycle:      8
  WF centre and spread    1  (  0.000000,  1.420859,  0.000000 )     0.89536293
  WF centre and spread    2  (  0.000000,  2.841718,  0.000000 )     0.89536293
  WF centre and spread    3  (  0.615250,  1.065644,  0.000000 )     0.60269924
  WF centre and spread    4  (  0.000000,  2.131289,  0.000000 )     0.60269924
  WF centre and spread    5  ( -0.615250,  1.065644,  0.000000 )     0.60269924
  Sum of centres and spreads (  0.000000,  8.525154,  0.000000 )     3.59882356
 
      8    -0.740E-05     0.0027218753        3.5988235625      67.60  <-- CONV
        O_D=      0.0139544 O_OD=      0.6432321 O_TOT=      3.5988236 <-- SPRD
 Delta: O_D= -0.3865638E-05 O_OD= -0.3535751E-05 O_TOT= -0.7401389E-05 <-- DLTA
 ------------------------------------------------------------------------------
 Cycle:      9
  WF centre and spread    1  (  0.000000,  1.420859,  0.000000 )     0.89536220
  WF centre and spread    2  (  0.000000,  2.841718,  0.000000 )     0.89536220
  WF centre and spread    3  (  0.615250,  1.065644,  0.000000 )     0.60269910
  WF centre and spread    4  (  0.000000,  2.131289,  0.000000 )     0.60269910
  WF centre and spread    5  ( -0.615250,  1.065644,  0.000000 )     0.60269910
  Sum of centres and spreads (  0.000000,  8.525154,  0.000000 )     3.59882171
 
      9    -0.185E-05     0.0015660102        3.5988217103      67.62  <-- CONV
        O_D=      0.0139530 O_OD=      0.6432317 O_TOT=      3.5988217 <-- SPRD
 Delta: O_D= -0.1449744E-05 O_OD= -0.4023852E-06 O_TOT= -0.1852129E-05 <-- DLTA
 ------------------------------------------------------------------------------
 Cycle:     10
  WF centre and spread    1  (  0.000000,  1.420859,  0.000000 )     0.89536199
  WF centre and spread    2  (  0.000000,  2.841718,  0.000000 )     0.89536199
  WF centre and spread    3  (  0.615250,  1.065644,  0.000000 )     0.60269907
  WF centre and spread    4  (  0.000000,  2.131289,  0.000000 )     0.60269907
  WF centre and spread    5  ( -0.615250,  1.065644,  0.000000 )     0.60269907
  Sum of centres and spreads (  0.000000,  8.525154,  0.000000 )     3.59882118
 
     10    -0.533E-06     0.0007415762        3.5988211776      67.64  <-- CONV
        O_D=      0.0139526 O_OD=      0.6432316 O_TOT=      3.5988212 <-- SPRD
 Delta: O_D= -0.4306154E-06 O_OD= -0.1021121E-06 O_TOT= -0.5327275E-06 <-- DLTA
 ------------------------------------------------------------------------------
 Cycle:     11
  WF centre and spread    1  (  0.000000,  1.420859,  0.000000 )     0.89536193
  WF centre and spread    2  (  0.000000,  2.841718,  0.000000 )     0.89536193
  WF centre and spread    3  (  0.615250,  1.065644,  0.000000 )     0.60269905
  WF centre and spread    4  (  0.000000,  2.131289,  0.000000 )     0.60269905
  WF centre and spread    5  ( -0.615250,  1.065644,  0.000000 )     0.60269905
  Sum of centres and spreads (  0.000000,  8.525154,  0.000000 )     3.59882100
 
     11    -0.181E-06     0.0004593238        3.5988209971      67.67  <-- CONV
        O_D=      0.0139525 O_OD=      0.6432315 O_TOT=      3.5988210 <-- SPRD
 Delta: O_D= -0.1106150E-06 O_OD= -0.6993935E-07 O_TOT= -0.1805543E-06 <-- DLTA
 ------------------------------------------------------------------------------
 Cycle:     12
  WF centre and spread    1  (  0.000000,  1.420859,  0.000000 )     0.89536191
  WF centre and spread    2  (  0.000000,  2.841718,  0.000000 )     0.89536191
  WF centre and spread    3  (  0.615250,  1.065644,  0.000000 )     0.60269903
  WF centre and spread    4  (  0.000000,  2.131289,  0.000000 )     0.60269903
  WF centre and spread    5  ( -0.615250,  1.065644,  0.000000 )     0.60269903
  Sum of centres and spreads (  0.000000,  8.525154,  0.000000 )     3.59882092
 
     12    -0.793E-07     0.0003010951        3.5988209177      67.69  <-- CONV
        O_D=      0.0139524 O_OD=      0.6432315 O_TOT=      3.5988209 <-- SPRD
 Delta: O_D= -0.3363734E-07 O_OD= -0.4570763E-07 O_TOT= -0.7934497E-07 <-- DLTA
 ------------------------------------------------------------------------------
 Cycle:     13
  WF centre and spread    1  (  0.000000,  1.420859,  0.000000 )     0.89536191
  WF centre and spread    2  (  0.000000,  2.841718,  0.000000 )     0.89536191
  WF centre and spread    3  (  0.615250,  1.065644,  0.000000 )     0.60269903
  WF centre and spread    4  (  0.000000,  2.131289,  0.000000 )     0.60269903
  WF centre and spread    5  ( -0.615250,  1.065644,  0.000000 )     0.60269903
  Sum of centres and spreads (  0.000000,  8.525154,  0.000000 )     3.59882090
 
     13    -0.188E-07     0.0001422926        3.5988208989      67.71  <-- CONV
        O_D=      0.0139524 O_OD=      0.6432315 O_TOT=      3.5988209 <-- SPRD
 Delta: O_D= -0.5965006E-08 O_OD= -0.1281964E-07 O_TOT= -0.1878465E-07 <-- DLTA
 ------------------------------------------------------------------------------
 Cycle:     14
  WF centre and spread    1  (  0.000000,  1.420859,  0.000000 )     0.89536191
  WF centre and spread    2  (  0.000000,  2.841718,  0.000000 )     0.89536191
  WF centre and spread    3  (  0.615250,  1.065644,  0.000000 )     0.60269902
  WF centre and spread    4  (  0.000000,  2.131289,  0.000000 )     0.60269902
  WF centre and spread    5  ( -0.615250,  1.065644,  0.000000 )     0.60269902
  Sum of centres and spreads (  0.000000,  8.525154,  0.000000 )     3.59882089
 
     14    -0.110E-07     0.0000966544        3.5988208879      67.73  <-- CONV
        O_D=      0.0139524 O_OD=      0.6432315 O_TOT=      3.5988209 <-- SPRD
 Delta: O_D= -0.7961300E-09 O_OD= -0.1020076E-07 O_TOT= -0.1099689E-07 <-- DLTA
 ------------------------------------------------------------------------------
 Cycle:     15
  WF centre and spread    1  (  0.000000,  1.420859,  0.000000 )     0.89536191
  WF centre and spread    2  (  0.000000,  2.841718,  0.000000 )     0.89536191
  WF centre and spread    3  (  0.615250,  1.065644,  0.000000 )     0.60269902
  WF centre and spread    4  (  0.000000,  2.131289,  0.000000 )     0.60269902
  WF centre and spread    5  ( -0.615250,  1.065644,  0.000000 )     0.60269902
  Sum of centres and spreads (  0.000000,  8.525154,  0.000000 )     3.59882088
 
     15    -0.639E-08     0.0000771879        3.5988208815      67.75  <-- CONV
        O_D=      0.0139524 O_OD=      0.6432315 O_TOT=      3.5988209 <-- SPRD
 Delta: O_D= -0.4302880E-09 O_OD= -0.5957581E-08 O_TOT= -0.6387870E-08 <-- DLTA
 ------------------------------------------------------------------------------
 Cycle:     16
  WF centre and spread    1  (  0.000000,  1.420859,  0.000000 )     0.89536191
  WF centre and spread    2  (  0.000000,  2.841718,  0.000000 )     0.89536191
  WF centre and spread    3  (  0.615250,  1.065644,  0.000000 )     0.60269902
  WF centre and spread    4  (  0.000000,  2.131289,  0.000000 )     0.60269902
  WF centre and spread    5  ( -0.615250,  1.065644,  0.000000 )     0.60269902
  Sum of centres and spreads (  0.000000,  8.525154,  0.000000 )     3.59882088
 
     16    -0.352E-08     0.0000572729        3.5988208780      67.78  <-- CONV
        O_D=      0.0139524 O_OD=      0.6432315 O_TOT=      3.5988209 <-- SPRD
 Delta: O_D= -0.9082702E-09 O_OD= -0.2616202E-08 O_TOT= -0.3524472E-08 <-- DLTA
 ------------------------------------------------------------------------------
 Cycle:     17
  WF centre and spread    1  (  0.000000,  1.420859,  0.000000 )     0.89536191
  WF centre and spread    2  (  0.000000,  2.841718,  0.000000 )     0.89536191
  WF centre and spread    3  (  0.615250,  1.065644,  0.000000 )     0.60269902
  WF centre and spread    4  (  0.000000,  2.131289,  0.000000 )     0.60269902
  WF centre and spread    5  ( -0.615250,  1.065644,  0.000000 )     0.60269902
  Sum of centres and spreads (  0.000000,  8.525154,  0.000000 )     3.59882088
 
     17    -0.124E-08     0.0000395254        3.5988208768      67.80  <-- CONV
        O_D=      0.0139524 O_OD=      0.6432315 O_TOT=      3.5988209 <-- SPRD
 Delta: O_D= -0.5345189E-09 O_OD= -0.7066834E-09 O_TOT= -0.1241203E-08 <-- DLTA
 ------------------------------------------------------------------------------
 Cycle:     18
  WF centre and spread    1  (  0.000000,  1.420859,  0.000000 )     0.89536191
  WF centre and spread    2  (  0.000000,  2.841718,  0.000000 )     0.89536191
  WF centre and spread    3  (  0.615250,  1.065644,  0.000000 )     0.60269902
  WF centre and spread    4  (  0.000000,  2.131289,  0.000000 )     0.60269902
  WF centre and spread    5  ( -0.615250,  1.065644,  0.000000 )     0.60269902
  Sum of centres and spreads (  0.000000,  8.525154,  0.000000 )     3.59882088
 
     18    -0.184E-09     0.0000213144        3.5988208766      67.82  <-- CONV
        O_D=      0.0139524 O_OD=      0.6432315 O_TOT=      3.5988209 <-- SPRD
 Delta: O_D= -0.2074449E-10 O_OD= -0.1634043E-09 O_TOT= -0.1841483E-09 <-- DLTA
 ------------------------------------------------------------------------------
 Cycle:     19
  WF centre and spread    1  (  0.000000,  1.420859,  0.000000 )     0.89536191
  WF centre and spread    2  (  0.000000,  2.841718,  0.000000 )     0.89536191
  WF centre and spread    3  (  0.615250,  1.065644,  0.000000 )     0.60269902
  WF centre and spread    4  (  0.000000,  2.131289,  0.000000 )     0.60269902
  WF centre and spread    5  ( -0.615250,  1.065644,  0.000000 )     0.60269902
  Sum of centres and spreads (  0.000000,  8.525154,  0.000000 )     3.59882088
 
     19     0.161E-08     0.0000179600        3.5988208782      67.84  <-- CONV
        O_D=      0.0139524 O_OD=      0.6432315 O_TOT=      3.5988209 <-- SPRD
 Delta: O_D=  0.1632447E-08 O_OD= -0.2525258E-10 O_TOT=  0.1607194E-08 <-- DLTA
 ------------------------------------------------------------------------------
 Cycle:     20
  WF centre and spread    1  (  0.000000,  1.420859,  0.000000 )     0.89536191
  WF centre and spread    2  (  0.000000,  2.841718,  0.000000 )     0.89536191
  WF centre and spread    3  (  0.615250,  1.065644,  0.000000 )     0.60269902
  WF centre and spread    4  (  0.000000,  2.131289,  0.000000 )     0.60269902
  WF centre and spread    5  ( -0.615250,  1.065644,  0.000000 )     0.60269902
  Sum of centres and spreads (  0.000000,  8.525154,  0.000000 )     3.59882088
 
     20    -0.176E-08     0.0000680299        3.5988208764      67.87  <-- CONV
        O_D=      0.0139524 O_OD=      0.6432315 O_TOT=      3.5988209 <-- SPRD
 Delta: O_D= -0.1744327E-08 O_OD= -0.1831235E-10 O_TOT= -0.1762639E-08 <-- DLTA
 ------------------------------------------------------------------------------
 Cycle:     21
  WF centre and spread    1  (  0.000000,  1.420859,  0.000000 )     0.89536191
  WF centre and spread    2  (  0.000000,  2.841718,  0.000000 )     0.89536191
  WF centre and spread    3  (  0.615250,  1.065644,  0.000000 )     0.60269902
  WF centre and spread    4  (  0.000000,  2.131289,  0.000000 )     0.60269902
  WF centre and spread    5  ( -0.615250,  1.065644,  0.000000 )     0.60269902
  Sum of centres and spreads (  0.000000,  8.525154,  0.000000 )     3.59882088
 
     21    -0.221E-10     0.0000074686        3.5988208764      67.89  <-- CONV
        O_D=      0.0139524 O_OD=      0.6432315 O_TOT=      3.5988209 <-- SPRD
 Delta: O_D= -0.1818334E-10 O_OD= -0.3950951E-11 O_TOT= -0.2213429E-10 <-- DLTA
 ------------------------------------------------------------------------------
 Cycle:     22
  WF centre and spread    1  (  0.000000,  1.420859,  0.000000 )     0.89536191
  WF centre and spread    2  (  0.000000,  2.841718,  0.000000 )     0.89536191
  WF centre and spread    3  (  0.615250,  1.065644,  0.000000 )     0.60269902
  WF centre and spread    4  (  0.000000,  2.131289,  0.000000 )     0.60269902
  WF centre and spread    5  ( -0.615250,  1.065644,  0.000000 )     0.60269902
  Sum of centres and spreads (  0.000000,  8.525154,  0.000000 )     3.59882088
 
     22    -0.539E-11     0.0000034822        3.5988208764      67.91  <-- CONV
        O_D=      0.0139524 O_OD=      0.6432315 O_TOT=      3.5988209 <-- SPRD
 Delta: O_D= -0.3466553E-11 O_OD= -0.1927014E-11 O_TOT= -0.5393463E-11 <-- DLTA
 ------------------------------------------------------------------------------
 Cycle:     23
  WF centre and spread    1  (  0.000000,  1.420859,  0.000000 )     0.89536191
  WF centre and spread    2  (  0.000000,  2.841718,  0.000000 )     0.89536191
  WF centre and spread    3  (  0.615250,  1.065644,  0.000000 )     0.60269902
  WF centre and spread    4  (  0.000000,  2.131289,  0.000000 )     0.60269902
  WF centre and spread    5  ( -0.615250,  1.065644,  0.000000 )     0.60269902
  Sum of centres and spreads (  0.000000,  8.525154,  0.000000 )     3.59882088
 
     23    -0.271E-12     0.0000019572        3.5988208764      67.93  <-- CONV
        O_D=      0.0139524 O_OD=      0.6432315 O_TOT=      3.5988209 <-- SPRD
 Delta: O_D= -0.1197029E-12 O_OD= -0.1514344E-12 O_TOT= -0.2708944E-12 <-- DLTA
 ------------------------------------------------------------------------------
 Cycle:     24
  WF centre and spread    1  (  0.000000,  1.420859,  0.000000 )     0.89536191
  WF centre and spread    2  (  0.000000,  2.841718,  0.000000 )     0.89536191
  WF centre and spread    3  (  0.615250,  1.065644,  0.000000 )     0.60269902
  WF centre and spread    4  (  0.000000,  2.131289,  0.000000 )     0.60269902
  WF centre and spread    5  ( -0.615250,  1.065644,  0.000000 )     0.60269902
  Sum of centres and spreads (  0.000000,  8.525154,  0.000000 )     3.59882088
 
     24    -0.401E-12     0.0000018822        3.5988208764      67.95  <-- CONV
        O_D=      0.0139524 O_OD=      0.6432315 O_TOT=      3.5988209 <-- SPRD
 Delta: O_D= -0.1596015E-12 O_OD= -0.2408074E-12 O_TOT= -0.4005685E-12 <-- DLTA
 ------------------------------------------------------------------------------
 Cycle:     25
  WF centre and spread    1  (  0.000000,  1.420859,  0.000000 )     0.89536191
  WF centre and spread    2  (  0.000000,  2.841718,  0.000000 )     0.89536191
  WF centre and spread    3  (  0.615250,  1.065644,  0.000000 )     0.60269902
  WF centre and spread    4  (  0.000000,  2.131289,  0.000000 )     0.60269902
  WF centre and spread    5  ( -0.615250,  1.065644,  0.000000 )     0.60269902
  Sum of centres and spreads (  0.000000,  8.525154,  0.000000 )     3.59882088
 
     25    -0.105E-12     0.0000017763        3.5988208764      67.97  <-- CONV
        O_D=      0.0139524 O_OD=      0.6432315 O_TOT=      3.5988209 <-- SPRD
 Delta: O_D= -0.3790544E-13 O_OD= -0.6727952E-13 O_TOT= -0.1052491E-12 <-- DLTA
 ------------------------------------------------------------------------------
 Cycle:     26
  WF centre and spread    1  (  0.000000,  1.420859,  0.000000 )     0.89536191
  WF centre and spread    2  (  0.000000,  2.841718,  0.000000 )     0.89536191
  WF centre and spread    3  (  0.615250,  1.065644,  0.000000 )     0.60269902
  WF centre and spread    4  (  0.000000,  2.131289,  0.000000 )     0.60269902
  WF centre and spread    5  ( -0.615250,  1.065644,  0.000000 )     0.60269902
  Sum of centres and spreads (  0.000000,  8.525154,  0.000000 )     3.59882088
 
     26    -0.149E-12     0.0000017500        3.5988208764      67.99  <-- CONV
        O_D=      0.0139524 O_OD=      0.6432315 O_TOT=      3.5988209 <-- SPRD
 Delta: O_D= -0.5289866E-13 O_OD= -0.9670043E-13 O_TOT= -0.1492140E-12 <-- DLTA
 ------------------------------------------------------------------------------
 Cycle:     27
  WF centre and spread    1  (  0.000000,  1.420859,  0.000000 )     0.89536191
  WF centre and spread    2  (  0.000000,  2.841718,  0.000000 )     0.89536191
  WF centre and spread    3  (  0.615250,  1.065644,  0.000000 )     0.60269902
  WF centre and spread    4  (  0.000000,  2.131289,  0.000000 )     0.60269902
  WF centre and spread    5  ( -0.615250,  1.065644,  0.000000 )     0.60269902
  Sum of centres and spreads (  0.000000,  8.525154,  0.000000 )     3.59882088
 
     27    -0.630E-12     0.0000017123        3.5988208764      68.01  <-- CONV
        O_D=      0.0139524 O_OD=      0.6432315 O_TOT=      3.5988209 <-- SPRD
 Delta: O_D= -0.2073740E-12 O_OD= -0.4226619E-12 O_TOT= -0.6301626E-12 <-- DLTA
 ------------------------------------------------------------------------------
 Cycle:     28
  WF centre and spread    1  (  0.000000,  1.420859,  0.000000 )     0.89536191
  WF centre and spread    2  (  0.000000,  2.841718,  0.000000 )     0.89536191
  WF centre and spread    3  (  0.615250,  1.065644,  0.000000 )     0.60269902
  WF centre and spread    4  (  0.000000,  2.131289,  0.000000 )     0.60269902
  WF centre and spread    5  ( -0.615250,  1.065644,  0.000000 )     0.60269902
  Sum of centres and spreads (  0.000000,  8.525154,  0.000000 )     3.59882088
 
     28    -0.123E-11     0.0000015553        3.5988208764      68.03  <-- CONV
        O_D=      0.0139524 O_OD=      0.6432315 O_TOT=      3.5988209 <-- SPRD
 Delta: O_D= -0.3551950E-12 O_OD= -0.8785195E-12 O_TOT= -0.1233680E-11 <-- DLTA
 ------------------------------------------------------------------------------
 Cycle:     29
  WF centre and spread    1  (  0.000000,  1.420859,  0.000000 )     0.89536191
  WF centre and spread    2  (  0.000000,  2.841718,  0.000000 )     0.89536191
  WF centre and spread    3  (  0.615250,  1.065644,  0.000000 )     0.60269902
  WF centre and spread    4  (  0.000000,  2.131289,  0.000000 )     0.60269902
  WF centre and spread    5  ( -0.615250,  1.065644,  0.000000 )     0.60269902
  Sum of centres and spreads (  0.000000,  8.525154,  0.000000 )     3.59882088
 
     29    -0.493E-13     0.0000012400        3.5988208764      68.05  <-- CONV
        O_D=      0.0139524 O_OD=      0.6432315 O_TOT=      3.5988209 <-- SPRD
 Delta: O_D= -0.1080733E-13 O_OD= -0.3841372E-13 O_TOT= -0.4929390E-13 <-- DLTA
 ------------------------------------------------------------------------------
 Cycle:     30
  WF centre and spread    1  (  0.000000,  1.420859,  0.000000 )     0.89536191
  WF centre and spread    2  (  0.000000,  2.841718,  0.000000 )     0.89536191
  WF centre and spread    3  (  0.615250,  1.065644,  0.000000 )     0.60269902
  WF centre and spread    4  (  0.000000,  2.131289,  0.000000 )     0.60269902
  WF centre and spread    5  ( -0.615250,  1.065644,  0.000000 )     0.60269902
  Sum of centres and spreads (  0.000000,  8.525154,  0.000000 )     3.59882088
 
     30    -0.544E-12     0.0000012291        3.5988208764      68.07  <-- CONV
        O_D=      0.0139524 O_OD=      0.6432315 O_TOT=      3.5988209 <-- SPRD
 Delta: O_D= -0.1164936E-12 O_OD= -0.4276579E-12 O_TOT= -0.5444534E-12 <-- DLTA
 ------------------------------------------------------------------------------
 Cycle:     31
  WF centre and spread    1  (  0.000000,  1.420859,  0.000000 )     0.89536191
  WF centre and spread    2  (  0.000000,  2.841718,  0.000000 )     0.89536191
  WF centre and spread    3  (  0.615250,  1.065644,  0.000000 )     0.60269902
  WF centre and spread    4  (  0.000000,  2.131289,  0.000000 )     0.60269902
  WF centre and spread    5  ( -0.615250,  1.065644,  0.000000 )     0.60269902
  Sum of centres and spreads (  0.000000,  8.525154,  0.000000 )     3.59882088
 
     31    -0.980E-12     0.0000011054        3.5988208764      68.09  <-- CONV
        O_D=      0.0139524 O_OD=      0.6432315 O_TOT=      3.5988209 <-- SPRD
 Delta: O_D= -0.1497847E-12 O_OD= -0.8303358E-12 O_TOT= -0.9801049E-12 <-- DLTA
 ------------------------------------------------------------------------------
 Cycle:     32
  WF centre and spread    1  (  0.000000,  1.420859,  0.000000 )     0.89536191
  WF centre and spread    2  (  0.000000,  2.841718,  0.000000 )     0.89536191
  WF centre and spread    3  (  0.615250,  1.065644,  0.000000 )     0.60269902
  WF centre and spread    4  (  0.000000,  2.131289,  0.000000 )     0.60269902
  WF centre and spread    5  ( -0.615250,  1.065644,  0.000000 )     0.60269902
  Sum of centres and spreads (  0.000000,  8.525154,  0.000000 )     3.59882088
 
     32    -0.933E-14     0.0000009235        3.5988208764      68.11  <-- CONV
        O_D=      0.0139524 O_OD=      0.6432315 O_TOT=      3.5988209 <-- SPRD
 Delta: O_D= -0.9957313E-15 O_OD= -0.8659740E-14 O_TOT= -0.9325873E-14 <-- DLTA
 ------------------------------------------------------------------------------
 Cycle:     33
  WF centre and spread    1  (  0.000000,  1.420859,  0.000000 )     0.89536191
  WF centre and spread    2  (  0.000000,  2.841718,  0.000000 )     0.89536191
  WF centre and spread    3  (  0.615250,  1.065644,  0.000000 )     0.60269902
  WF centre and spread    4  (  0.000000,  2.131289,  0.000000 )     0.60269902
  WF centre and spread    5  ( -0.615250,  1.065644,  0.000000 )     0.60269902
  Sum of centres and spreads (  0.000000,  8.525154,  0.000000 )     3.59882088
 
     33    -0.933E-13     0.0000009222        3.5988208764      68.13  <-- CONV
        O_D=      0.0139524 O_OD=      0.6432315 O_TOT=      3.5988209 <-- SPRD
 Delta: O_D= -0.1112652E-13 O_OD= -0.8204548E-13 O_TOT= -0.9325873E-13 <-- DLTA
 ------------------------------------------------------------------------------
 Cycle:     34
  WF centre and spread    1  (  0.000000,  1.420859,  0.000000 )     0.89536191
  WF centre and spread    2  (  0.000000,  2.841718,  0.000000 )     0.89536191
  WF centre and spread    3  (  0.615250,  1.065644,  0.000000 )     0.60269902
  WF centre and spread    4  (  0.000000,  2.131289,  0.000000 )     0.60269902
  WF centre and spread    5  ( -0.615250,  1.065644,  0.000000 )     0.60269902
  Sum of centres and spreads (  0.000000,  8.525154,  0.000000 )     3.59882088
 
     34    -0.249E-13     0.0000009074        3.5988208764      68.14  <-- CONV
        O_D=      0.0139524 O_OD=      0.6432315 O_TOT=      3.5988209 <-- SPRD
 Delta: O_D= -0.2673209E-14 O_OD= -0.2198242E-13 O_TOT= -0.2486900E-13 <-- DLTA
 ------------------------------------------------------------------------------
 Cycle:     35
  WF centre and spread    1  (  0.000000,  1.420859,  0.000000 )     0.89536191
  WF centre and spread    2  (  0.000000,  2.841718,  0.000000 )     0.89536191
  WF centre and spread    3  (  0.615250,  1.065644,  0.000000 )     0.60269902
  WF centre and spread    4  (  0.000000,  2.131289,  0.000000 )     0.60269902
  WF centre and spread    5  ( -0.615250,  1.065644,  0.000000 )     0.60269902
  Sum of centres and spreads (  0.000000,  8.525154,  0.000000 )     3.59882088
 
     35    -0.226E-12     0.0000009037        3.5988208764      68.16  <-- CONV
        O_D=      0.0139524 O_OD=      0.6432315 O_TOT=      3.5988209 <-- SPRD
 Delta: O_D= -0.2487940E-13 O_OD= -0.2017275E-12 O_TOT= -0.2264855E-12 <-- DLTA
 ------------------------------------------------------------------------------
 Cycle:     36
  WF centre and spread    1  (  0.000000,  1.420859,  0.000000 )     0.89536191
  WF centre and spread    2  (  0.000000,  2.841718,  0.000000 )     0.89536191
  WF centre and spread    3  (  0.615250,  1.065644,  0.000000 )     0.60269902
  WF centre and spread    4  (  0.000000,  2.131289,  0.000000 )     0.60269902
  WF centre and spread    5  ( -0.615250,  1.065644,  0.000000 )     0.60269902
  Sum of centres and spreads (  0.000000,  8.525154,  0.000000 )     3.59882088
 
     36    -0.373E-13     0.0000008684        3.5988208764      68.18  <-- CONV
        O_D=      0.0139524 O_OD=      0.6432315 O_TOT=      3.5988209 <-- SPRD
 Delta: O_D= -0.3459039E-14 O_OD= -0.3375078E-13 O_TOT= -0.3730349E-13 <-- DLTA
 ------------------------------------------------------------------------------
 Cycle:     37
  WF centre and spread    1  (  0.000000,  1.420859,  0.000000 )     0.89536191
  WF centre and spread    2  (  0.000000,  2.841718,  0.000000 )     0.89536191
  WF centre and spread    3  (  0.615250,  1.065644,  0.000000 )     0.60269902
  WF centre and spread    4  (  0.000000,  2.131289,  0.000000 )     0.60269902
  WF centre and spread    5  ( -0.615250,  1.065644,  0.000000 )     0.60269902
  Sum of centres and spreads (  0.000000,  8.525154,  0.000000 )     3.59882088
 
     37    -0.142E-12     0.0000008632        3.5988208764      68.20  <-- CONV
        O_D=      0.0139524 O_OD=      0.6432315 O_TOT=      3.5988209 <-- SPRD
 Delta: O_D= -0.1483536E-13 O_OD= -0.1270095E-12 O_TOT= -0.1416645E-12 <-- DLTA
 ------------------------------------------------------------------------------
 Cycle:     38
  WF centre and spread    1  (  0.000000,  1.420859,  0.000000 )     0.89536191
  WF centre and spread    2  (  0.000000,  2.841718,  0.000000 )     0.89536191
  WF centre and spread    3  (  0.615250,  1.065644,  0.000000 )     0.60269902
  WF centre and spread    4  (  0.000000,  2.131289,  0.000000 )     0.60269902
  WF centre and spread    5  ( -0.615250,  1.065644,  0.000000 )     0.60269902
  Sum of centres and spreads (  0.000000,  8.525154,  0.000000 )     3.59882088
 
     38    -0.151E-13     0.0000008403        3.5988208764      68.21  <-- CONV
        O_D=      0.0139524 O_OD=      0.6432315 O_TOT=      3.5988209 <-- SPRD
 Delta: O_D= -0.5603157E-15 O_OD= -0.1432188E-13 O_TOT= -0.1509903E-13 <-- DLTA
 ------------------------------------------------------------------------------
 Cycle:     39
  WF centre and spread    1  (  0.000000,  1.420859,  0.000000 )     0.89536191
  WF centre and spread    2  (  0.000000,  2.841718,  0.000000 )     0.89536191
  WF centre and spread    3  (  0.615250,  1.065644,  0.000000 )     0.60269902
  WF centre and spread    4  (  0.000000,  2.131289,  0.000000 )     0.60269902
  WF centre and spread    5  ( -0.615250,  1.065644,  0.000000 )     0.60269902
  Sum of centres and spreads (  0.000000,  8.525154,  0.000000 )     3.59882088
 
     39    -0.400E-14     0.0000008394        3.5988208764      68.23  <-- CONV
        O_D=      0.0139524 O_OD=      0.6432315 O_TOT=      3.5988209 <-- SPRD
 Delta: O_D= -0.9159340E-15 O_OD= -0.3219647E-14 O_TOT= -0.3996803E-14 <-- DLTA
 ------------------------------------------------------------------------------
 Cycle:     40
  WF centre and spread    1  (  0.000000,  1.420859,  0.000000 )     0.89536191
  WF centre and spread    2  (  0.000000,  2.841718,  0.000000 )     0.89536191
  WF centre and spread    3  (  0.615250,  1.065644,  0.000000 )     0.60269902
  WF centre and spread    4  (  0.000000,  2.131289,  0.000000 )     0.60269902
  WF centre and spread    5  ( -0.615250,  1.065644,  0.000000 )     0.60269902
  Sum of centres and spreads (  0.000000,  8.525154,  0.000000 )     3.59882088
 
     40    -0.204E-13     0.0000008379        3.5988208764      68.25  <-- CONV
        O_D=      0.0139524 O_OD=      0.6432315 O_TOT=      3.5988209 <-- SPRD
 Delta: O_D= -0.1647987E-14 O_OD= -0.1898481E-13 O_TOT= -0.2042810E-13 <-- DLTA
 ------------------------------------------------------------------------------
 Cycle:     41
  WF centre and spread    1  (  0.000000,  1.420859,  0.000000 )     0.89536191
  WF centre and spread    2  (  0.000000,  2.841718,  0.000000 )     0.89536191
  WF centre and spread    3  (  0.615250,  1.065644,  0.000000 )     0.60269902
  WF centre and spread    4  (  0.000000,  2.131289,  0.000000 )     0.60269902
  WF centre and spread    5  ( -0.615250,  1.065644,  0.000000 )     0.60269902
  Sum of centres and spreads (  0.000000,  8.525154,  0.000000 )     3.59882088
 
     41    -0.258E-13     0.0000008350        3.5988208764      68.26  <-- CONV
        O_D=      0.0139524 O_OD=      0.6432315 O_TOT=      3.5988209 <-- SPRD
 Delta: O_D= -0.2184017E-14 O_OD= -0.2364775E-13 O_TOT= -0.2575717E-13 <-- DLTA
 ------------------------------------------------------------------------------
 Cycle:     42
  WF centre and spread    1  (  0.000000,  1.420859,  0.000000 )     0.89536191
  WF centre and spread    2  (  0.000000,  2.841718,  0.000000 )     0.89536191
  WF centre and spread    3  (  0.615250,  1.065644,  0.000000 )     0.60269902
  WF centre and spread    4  (  0.000000,  2.131289,  0.000000 )     0.60269902
  WF centre and spread    5  ( -0.615250,  1.065644,  0.000000 )     0.60269902
  Sum of centres and spreads (  0.000000,  8.525154,  0.000000 )     3.59882088
 
     42    -0.360E-13     0.0000008312        3.5988208764      68.27  <-- CONV
        O_D=      0.0139524 O_OD=      0.6432315 O_TOT=      3.5988209 <-- SPRD
 Delta: O_D= -0.2661066E-14 O_OD= -0.3308465E-13 O_TOT= -0.3597123E-13 <-- DLTA
 ------------------------------------------------------------------------------
 Cycle:     43
  WF centre and spread    1  (  0.000000,  1.420859,  0.000000 )     0.89536191
  WF centre and spread    2  (  0.000000,  2.841718,  0.000000 )     0.89536191
  WF centre and spread    3  (  0.615250,  1.065644,  0.000000 )     0.60269902
  WF centre and spread    4  (  0.000000,  2.131289,  0.000000 )     0.60269902
  WF centre and spread    5  ( -0.615250,  1.065644,  0.000000 )     0.60269902
  Sum of centres and spreads (  0.000000,  8.525154,  0.000000 )     3.59882088
 
     43    -0.391E-13     0.0000008266        3.5988208764      68.29  <-- CONV
        O_D=      0.0139524 O_OD=      0.6432315 O_TOT=      3.5988209 <-- SPRD
 Delta: O_D= -0.3122502E-14 O_OD= -0.3608225E-13 O_TOT= -0.3907985E-13 <-- DLTA
 ------------------------------------------------------------------------------
 Cycle:     44
  WF centre and spread    1  (  0.000000,  1.420859,  0.000000 )     0.89536191
  WF centre and spread    2  (  0.000000,  2.841718,  0.000000 )     0.89536191
  WF centre and spread    3  (  0.615250,  1.065644,  0.000000 )     0.60269902
  WF centre and spread    4  (  0.000000,  2.131289,  0.000000 )     0.60269902
  WF centre and spread    5  ( -0.615250,  1.065644,  0.000000 )     0.60269902
  Sum of centres and spreads (  0.000000,  8.525154,  0.000000 )     3.59882088
 
     44    -0.355E-14     0.0000008211        3.5988208764      68.31  <-- CONV
        O_D=      0.0139524 O_OD=      0.6432315 O_TOT=      3.5988209 <-- SPRD
 Delta: O_D= -0.5221518E-15 O_OD= -0.2664535E-14 O_TOT= -0.3552714E-14 <-- DLTA
 ------------------------------------------------------------------------------
 Cycle:     45
  WF centre and spread    1  (  0.000000,  1.420859,  0.000000 )     0.89536191
  WF centre and spread    2  (  0.000000,  2.841718,  0.000000 )     0.89536191
  WF centre and spread    3  (  0.615250,  1.065644,  0.000000 )     0.60269902
  WF centre and spread    4  (  0.000000,  2.131289,  0.000000 )     0.60269902
  WF centre and spread    5  ( -0.615250,  1.065644,  0.000000 )     0.60269902
  Sum of centres and spreads (  0.000000,  8.525154,  0.000000 )     3.59882088
 
     45    -0.124E-13     0.0000008202        3.5988208764      68.33  <-- CONV
        O_D=      0.0139524 O_OD=      0.6432315 O_TOT=      3.5988209 <-- SPRD
 Delta: O_D= -0.1134509E-14 O_OD= -0.1165734E-13 O_TOT= -0.1243450E-13 <-- DLTA
 ------------------------------------------------------------------------------
 Cycle:     46
  WF centre and spread    1  (  0.000000,  1.420859,  0.000000 )     0.89536191
  WF centre and spread    2  (  0.000000,  2.841718,  0.000000 )     0.89536191
  WF centre and spread    3  (  0.615250,  1.065644,  0.000000 )     0.60269902
  WF centre and spread    4  (  0.000000,  2.131289,  0.000000 )     0.60269902
  WF centre and spread    5  ( -0.615250,  1.065644,  0.000000 )     0.60269902
  Sum of centres and spreads (  0.000000,  8.525154,  0.000000 )     3.59882088
 
     46    -0.235E-13     0.0000008181        3.5988208764      68.35  <-- CONV
        O_D=      0.0139524 O_OD=      0.6432315 O_TOT=      3.5988209 <-- SPRD
 Delta: O_D= -0.1507475E-14 O_OD= -0.2187139E-13 O_TOT= -0.2353673E-13 <-- DLTA
 ------------------------------------------------------------------------------
 Cycle:     47
  WF centre and spread    1  (  0.000000,  1.420859,  0.000000 )     0.89536191
  WF centre and spread    2  (  0.000000,  2.841718,  0.000000 )     0.89536191
  WF centre and spread    3  (  0.615250,  1.065644,  0.000000 )     0.60269902
  WF centre and spread    4  (  0.000000,  2.131289,  0.000000 )     0.60269902
  WF centre and spread    5  ( -0.615250,  1.065644,  0.000000 )     0.60269902
  Sum of centres and spreads (  0.000000,  8.525154,  0.000000 )     3.59882088
 
     47    -0.444E-13     0.0000008154        3.5988208764      68.37  <-- CONV
        O_D=      0.0139524 O_OD=      0.6432315 O_TOT=      3.5988209 <-- SPRD
 Delta: O_D= -0.3578735E-14 O_OD= -0.4063416E-13 O_TOT= -0.4440892E-13 <-- DLTA
 ------------------------------------------------------------------------------
 Cycle:     48
  WF centre and spread    1  (  0.000000,  1.420859,  0.000000 )     0.89536191
  WF centre and spread    2  (  0.000000,  2.841718,  0.000000 )     0.89536191
  WF centre and spread    3  (  0.615250,  1.065644,  0.000000 )     0.60269902
  WF centre and spread    4  (  0.000000,  2.131289,  0.000000 )     0.60269902
  WF centre and spread    5  ( -0.615250,  1.065644,  0.000000 )     0.60269902
  Sum of centres and spreads (  0.000000,  8.525154,  0.000000 )     3.59882088
 
     48    -0.150E-12     0.0000008088        3.5988208764      68.39  <-- CONV
        O_D=      0.0139524 O_OD=      0.6432315 O_TOT=      3.5988209 <-- SPRD
 Delta: O_D= -0.1153591E-13 O_OD= -0.1381117E-12 O_TOT= -0.1496581E-12 <-- DLTA
 ------------------------------------------------------------------------------
 Cycle:     49
  WF centre and spread    1  (  0.000000,  1.420859,  0.000000 )     0.89536191
  WF centre and spread    2  (  0.000000,  2.841718,  0.000000 )     0.89536191
  WF centre and spread    3  (  0.615250,  1.065644,  0.000000 )     0.60269902
  WF centre and spread    4  (  0.000000,  2.131289,  0.000000 )     0.60269902
  WF centre and spread    5  ( -0.615250,  1.065644,  0.000000 )     0.60269902
  Sum of centres and spreads (  0.000000,  8.525154,  0.000000 )     3.59882088
 
     49    -0.346E-13     0.0000007867        3.5988208764      68.40  <-- CONV
        O_D=      0.0139524 O_OD=      0.6432315 O_TOT=      3.5988209 <-- SPRD
 Delta: O_D= -0.2527492E-14 O_OD= -0.3230749E-13 O_TOT= -0.3463896E-13 <-- DLTA
 ------------------------------------------------------------------------------
 Cycle:     50
  WF centre and spread    1  (  0.000000,  1.420859,  0.000000 )     0.89536191
  WF centre and spread    2  (  0.000000,  2.841718,  0.000000 )     0.89536191
  WF centre and spread    3  (  0.615250,  1.065644,  0.000000 )     0.60269902
  WF centre and spread    4  (  0.000000,  2.131289,  0.000000 )     0.60269902
  WF centre and spread    5  ( -0.615250,  1.065644,  0.000000 )     0.60269902
  Sum of centres and spreads (  0.000000,  8.525154,  0.000000 )     3.59882088
 
     50    -0.933E-14     0.0000007818        3.5988208764      68.42  <-- CONV
        O_D=      0.0139524 O_OD=      0.6432315 O_TOT=      3.5988209 <-- SPRD
 Delta: O_D= -0.3729655E-15 O_OD= -0.8992806E-14 O_TOT= -0.9325873E-14 <-- DLTA
 ------------------------------------------------------------------------------
 Cycle:     51
  WF centre and spread    1  (  0.000000,  1.420859,  0.000000 )     0.89536191
  WF centre and spread    2  (  0.000000,  2.841718,  0.000000 )     0.89536191
  WF centre and spread    3  (  0.615250,  1.065644,  0.000000 )     0.60269902
  WF centre and spread    4  (  0.000000,  2.131289,  0.000000 )     0.60269902
  WF centre and spread    5  ( -0.615250,  1.065644,  0.000000 )     0.60269902
  Sum of centres and spreads (  0.000000,  8.525154,  0.000000 )     3.59882088
 
     51    -0.142E-13     0.0000007810        3.5988208764      68.44  <-- CONV
        O_D=      0.0139524 O_OD=      0.6432315 O_TOT=      3.5988209 <-- SPRD
 Delta: O_D= -0.1120631E-14 O_OD= -0.1287859E-13 O_TOT= -0.1421085E-13 <-- DLTA
 ------------------------------------------------------------------------------
 Cycle:     52
  WF centre and spread    1  (  0.000000,  1.420859,  0.000000 )     0.89536191
[...]
  WF centre and spread    3  (  0.615250,  1.065644,  0.000000 )     0.60269902
  WF centre and spread    4  (  0.000000,  2.131289,  0.000000 )     0.60269902
  WF centre and spread    5  ( -0.615250,  1.065644,  0.000000 )     0.60269902
  Sum of centres and spreads (  0.000000,  8.525154,  0.000000 )     3.59882088
 
    498    -0.533E-14     0.0000002007        3.5988208764      76.52  <-- CONV
        O_D=      0.0139524 O_OD=      0.6432315 O_TOT=      3.5988209 <-- SPRD
 Delta: O_D= -0.6938894E-17 O_OD= -0.5551115E-14 O_TOT= -0.5329071E-14 <-- DLTA
 ------------------------------------------------------------------------------
 Cycle:    499
  WF centre and spread    1  (  0.000000,  1.420859,  0.000000 )     0.89536191
  WF centre and spread    2  (  0.000000,  2.841718,  0.000000 )     0.89536191
  WF centre and spread    3  (  0.615250,  1.065644,  0.000000 )     0.60269902
  WF centre and spread    4  (  0.000000,  2.131289,  0.000000 )     0.60269902
  WF centre and spread    5  ( -0.615250,  1.065644,  0.000000 )     0.60269902
  Sum of centres and spreads (  0.000000,  8.525154,  0.000000 )     3.59882088
 
    499     0.222E-14     0.0000001999        3.5988208764      76.54  <-- CONV
        O_D=      0.0139524 O_OD=      0.6432315 O_TOT=      3.5988209 <-- SPRD
 Delta: O_D=  0.3816392E-16 O_OD=  0.2331468E-14 O_TOT=  0.2220446E-14 <-- DLTA
 ------------------------------------------------------------------------------
 Cycle:    500
  WF centre and spread    1  (  0.000000,  1.420859,  0.000000 )     0.89536191
  WF centre and spread    2  (  0.000000,  2.841718,  0.000000 )     0.89536191
  WF centre and spread    3  (  0.615250,  1.065644,  0.000000 )     0.60269902
  WF centre and spread    4  (  0.000000,  2.131289,  0.000000 )     0.60269902
  WF centre and spread    5  ( -0.615250,  1.065644,  0.000000 )     0.60269902
  Sum of centres and spreads (  0.000000,  8.525154,  0.000000 )     3.59882088
 
    500    -0.799E-14     0.0000001998        3.5988208764      76.56  <-- CONV
        O_D=      0.0139524 O_OD=      0.6432315 O_TOT=      3.5988209 <-- SPRD
 Delta: O_D=  0.1561251E-16 O_OD= -0.8104628E-14 O_TOT= -0.7993606E-14 <-- DLTA
 ------------------------------------------------------------------------------

 Writing checkpoint file wannier90.chk... done

 Final State
  WF centre and spread    1  (  0.000000,  1.420859,  0.000000 )     0.89536191
  WF centre and spread    2  (  0.000000,  2.841718,  0.000000 )     0.89536191
  WF centre and spread    3  (  0.615250,  1.065644,  0.000000 )     0.60269902
  WF centre and spread    4  (  0.000000,  2.131289,  0.000000 )     0.60269902
  WF centre and spread    5  ( -0.615250,  1.065644,  0.000000 )     0.60269902
  Sum of centres and spreads (  0.000000,  8.525154,  0.000000 )     3.59882088
 
         Spreads (Ang^2)       Omega I      =     2.941637013
        ================       Omega D      =     0.013952409
                               Omega OD     =     0.643231455
    Final Spread (Ang^2)       Omega Total  =     3.598820876
 ------------------------------------------------------------------------------

 Writing checkpoint file wannier90.chk... done

 Time for wannierise            9.144 (sec)
 *---------------------------------------------------------------------------*
 |                               PLOTTING                                    |
 *---------------------------------------------------------------------------*
 
 
 Calculating interpolated band-structure
 
 Time to calculate interpolated band structure       0.015 (sec)
 
 
 Calculating Fermi surface
 
 Time to calculate interpolated Fermi surface       8.625 (sec)
 
      Wannier Function Num:    1       Maximum Im/Re Ratio =    0.000000
      Wannier Function Num:    2       Maximum Im/Re Ratio =    0.000000
      Wannier Function Num:    3       Maximum Im/Re Ratio =    0.000000
      Wannier Function Num:    4       Maximum Im/Re Ratio =    0.000000
      Wannier Function Num:    5       Maximum Im/Re Ratio =    0.000000
  
 Time for plotting             21.285 (sec)
 Total Execution Time          33.219 (sec)

 *===========================================================================*
 |                             TIMING INFORMATION                            |
 *===========================================================================*
 |    Tag                                                Ncalls      Time (s)|
 |---------------------------------------------------------------------------|
 |kmesh: get                                        :         2         0.292|
 |dis: main                                         :         1         2.628|
 |wann: main                                        :         1         9.142|
 |plot: main                                        :         1        21.285|
 *---------------------------------------------------------------------------*
 
 All done: wannier90 exiting
 
             +---------------------------------------------------+
             |                                                   |
             |                   WANNIER90                       |
             |                                                   |
             +---------------------------------------------------+
             |                                                   |
             |        Welcome to the Maximally-Localized         |
             |        Generalized Wannier Functions code         |
             |            http://www.wannier.org                 |
             |                                                   |
             |  Wannier90 Authors:                               |
             |    Arash A. Mostofi   (Imperial College London)   |
             |    Jonathan R. Yates  (University of Oxford)      |
             |    Young-Su Lee       (KIST, S. Korea)            |
             |                                                   |
             |  Wannier90 Contributors:                          |
             |    Matthew Shelley    (Imperial College London)   |
             |    Nicolas Poilvert   (MIT)                       |
             |                                                   |
             |  Wannier77 Authors:                               |
             |    Nicola Marzari     (University of Oxford)      |
             |    Ivo Souza          (UC Berkeley)               |
             |    David Vanderbilt   (Rutgers University)        |
             |                                                   |
             |  Please cite                                      |
             |                                                   |
             |  [ref] "Wannier90: A Tool for Obtaining Maximally |
             |         Localised Wannier Functions"              |
             |        A. A. Mostofi, J. R. Yates, Y.-S. Lee,     |
             |        I. Souza, D. Vanderbilt and N. Marzari     |
             |        Comput. Phys. Commun. 178, 685 (2008)      |
             |                                                   |
             |  in any publications arising from the use of      |
             |  this code. For the method please cite            |
             |                                                   |
             |  [ref] "Maximally Localized Generalised Wannier   |
             |         Functions for Composite Energy Bands"     |
             |         N. Marzari and D. Vanderbilt              |
             |         Phys. Rev. B 56 12847 (1997)              |
             |                                                   |
             |  [ref] "Maximally Localized Wannier Functions     |
             |         for Entangled Energy Bands"               |
             |         I. Souza, N. Marzari and D. Vanderbilt    |
             |         Phys. Rev. B 65 035109 (2001)             |
             |                                                   |
             |                                                   |
             | Copyright (c) 1996-2010                           |
             |        A. A. Mostofi, J. R. Yates, Y.-S. Lee,     |
             |        I. Souza, D. Vanderbilt and N. Marzari     |
             |                                                   |
             |        Release: 1.2        24th Jan 2010          |
             |                                                   |
             | This program is free software; you can            |
             | redistribute it and/or modify it under the terms  |
             | of the GNU General Public License as published by |
             | the Free Software Foundation; either version 2 of |
             | the License, or (at your option) any later version|
             |                                                   |
             | This program is distributed in the hope that it   |
             | will be useful, but WITHOUT ANY WARRANTY; without |
             | even the implied warranty of MERCHANTABILITY or   |
             | FITNESS FOR A PARTICULAR PURPOSE. See the GNU     |
             | General Public License for more details.          |
             |                                                   |
             | You should have received a copy of the GNU General|
             | Public License along with this program; if not,   |
             | write to the Free Software Foundation, Inc.,      |
             | 675 Mass Ave, Cambridge, MA 02139, USA.           |
             |                                                   |
             +---------------------------------------------------+
             |    Execution started on 20Sep2012 at 15:03:33     |
             +---------------------------------------------------+

 Wannier90 is running in LIBRARY MODE

 Setting up k-point neighbours...


 Ignoring <num_bands> in input file
 Ignoring <mp_grid> in input file
 Ignoring <unit_cell_cart> in input file
 Ignoring <kpoints> in input file
 Ignoring <atoms_cart> in input file
 
                                    ------
                                    SYSTEM
                                    ------
 
                              Lattice Vectors (Ang)
                    a_1     1.230500   2.131289   0.000000
                    a_2    -1.230500   2.131289   0.000000
                    a_3     0.000000   0.000000   7.104295
 
                   Unit Cell Volume:      37.26275  (Ang^3)
 
                        Reciprocal-Space Vectors (Ang^-1)
                    b_1     2.553103   1.474034   0.000000
                    b_2    -2.553103   1.474034   0.000000
                    b_3     0.000000   0.000000   0.884421
  
 *----------------------------------------------------------------------------*
 |   Site       Fractional Coordinate          Cartesian Coordinate (Ang)     |
 +----------------------------------------------------------------------------+
 | C    1   0.33333   0.33333   0.00000   |    0.00000   1.42086   0.00000    |
 | C    2   0.66667   0.66667   0.00000   |    0.00000   2.84172   0.00000    |
 *----------------------------------------------------------------------------*
  
                                ------------
                                K-POINT GRID
                                ------------
  
             Grid size = 15 x 15 x  1      Total points =  225
  
  
 *---------------------------------- MAIN ------------------------------------*
 |  Number of Wannier Functions               :                 5             |
 |  Number of input Bloch states              :                16             |
 |  Output verbosity (1=low, 5=high)          :                 1             |
 |  Timing Level (1=low, 5=high)              :                 1             |
 |  Optimisation (0=memory, 3=speed)          :                 3             |
 |  Length Unit                               :               Ang             |
 |  Post-processing setup (write *.nnkp)      :                 F             |
 |  Using Gamma-only branch of algorithms     :                 F             |
 |  Wavefunction (UNK) file-type              :       unformatted             |
 |  Wavefunction spin channel                 :                up             |
 *----------------------------------------------------------------------------*
 *------------------------------- WANNIERISE ---------------------------------*
 |  Total number of iterations                :               500             |
 |  Number of CG steps before reset           :                 5             |
 |  Trial step length for line search         :             2.000             |
 |  Convergence tolerence                     :         0.100E-09             |
 |  Convergence window                        :                -1             |
 |  Iterations between writing output         :                 1             |
 |  Iterations between backing up to disk     :               100             |
 |  Write r^2_nm to file                      :                 F             |
 |  Write xyz WF centres to file              :                 F             |
 |  Use guiding centre to control phases      :                 T             |
 |  Iterations before starting guiding centres:                 0             |
 |  Iterations between using guiding centres  :                 1             |
 *----------------------------------------------------------------------------*
 *-------------------------------- PLOTTING ----------------------------------*
 |  Plotting Wannier functions                :                 T             |
 |   Size of supercell for plotting           :                 2             |
 |   Plotting mode (molecule or crystal)      :           crystal             |
 |   Plotting format                          :          xcrysden             |
 *----------------------------------------------------------------------------*
 |  Plotting Fermi surface                    :                 T             |
 |   Number of plotting points (along b_1)    :                50             |
 |   Plotting format                          :          xcrysden             |
 *----------------------------------------------------------------------------*
 |  Plotting interpolated bandstructure       :                 T             |
 |   Number of K-path sections                :                 3             |
 |   Divisions along first K-path section     :               100             |
 |   Output format                            :           gnuplot             |
 |   Output mode                              :               s-k             |
 *----------------------------------------------------------------------------*
 |   K-space path sections:                                                   |
 |    From:  G    0.000  0.000  0.000     To:  K    0.333 -0.333  0.000       |
 |    From:  K    0.333 -0.333  0.000     To:  M    0.500  0.000  0.000       |
 |    From:  M    0.500  0.000  0.000     To:  G    0.000  0.000  0.000       |
 *----------------------------------------------------------------------------*
 |  Plotting Hamiltonian in WF basis          :                 T             |
 *----------------------------------------------------------------------------*
 Time to read parameters        0.010 (sec)

 *---------------------------------- K-MESH ----------------------------------*
 +----------------------------------------------------------------------------+
 |                    Distance to Nearest-Neighbour Shells                    |
 |                    ------------------------------------                    |
 |          Shell             Distance (Ang^-1)          Multiplicity         |
 |          -----             -----------------          ------------         |
 |             1                   0.196538                      6            |
 |             2                   0.340414                      6            |
 |             3                   0.393076                      6            |
 |             4                   0.519990                     12            |
 |             5                   0.589614                      6            |
 |             6                   0.680827                      6            |
 |             7                   0.708628                     12            |
 |             8                   0.786152                      6            |
 |             9                   0.856689                     12            |
 |            10                   0.884421                      2            |
 |            11                   0.900650                     12            |
 |            12                   0.905995                     12            |
 +----------------------------------------------------------------------------+
 | The b-vectors are chosen automatically                                     |
 | SVD found small singular value, Rejecting this shell and trying the next   |
 | SVD found small singular value, Rejecting this shell and trying the next   |
 | SVD found small singular value, Rejecting this shell and trying the next   |
 | SVD found small singular value, Rejecting this shell and trying the next   |
 | SVD found small singular value, Rejecting this shell and trying the next   |
 | The following shells are used:   1, 10                                     |
 +----------------------------------------------------------------------------+
 |                        Shell   # Nearest-Neighbours                        |
 |                        -----   --------------------                        |
 |                          1               6                                 |
 |                         10               2                                 |
 +----------------------------------------------------------------------------+
 | Completeness relation is fully satisfied [Eq. (B1), PRB 56, 12847 (1997)]  |
 +----------------------------------------------------------------------------+
 |                  b_k Vectors (Ang^-1) and Weights (Ang^2)                  |
 |                  ----------------------------------------                  |
 |            No.         b_k(x)      b_k(y)      b_k(z)        w_b           |
 |            ---        --------------------------------     --------        |
 |             1         0.170207    0.098269    0.000000     8.629508        |
 |             2        -0.170207   -0.098269    0.000000     8.629508        |
 |             3         0.170207   -0.098269    0.000000     8.629508        |
 |             4        -0.170207    0.098269    0.000000     8.629508        |
 |             5         0.000000   -0.196538    0.000000     8.629508        |
 |             6         0.000000    0.196538    0.000000     8.629508        |
 |             7         0.000000    0.000000    0.884421     0.639223        |
 |             8         0.000000    0.000000   -0.884421     0.639223        |
 +----------------------------------------------------------------------------+
 |                           b_k Directions (Ang^-1)                          |
 |                           -----------------------                          |
 |            No.           x           y           z                         |
 |            ---        --------------------------------                     |
 |             1         0.170207    0.098269    0.000000                     |
 |             2         0.170207   -0.098269    0.000000                     |
 |             3         0.000000   -0.196538    0.000000                     |
 |             4         0.000000    0.000000    0.884421                     |
 +----------------------------------------------------------------------------+
  
 Time to write kmesh            0.156 (sec)

 Finished setting up k-point neighbours.

 Returning to pw2wannier90 at 15:03:33 
