       #
       # Generated by the Wannier90 code http://www.wannier.org
       # On 16May2012 at 16:37:13 
       #
CRYSTAL
PRIMVEC
   1.2305000   2.1312885   0.0000000
  -1.2305000   2.1312885   0.0000000
   0.0000000   0.0000000   7.1042951
CONVVEC
   1.2305000   2.1312885   0.0000000
  -1.2305000   2.1312885   0.0000000
   0.0000000   0.0000000   7.1042951
PRIMCOORD
     2  1
C       0.0000000   1.4208590   0.0000000
C       0.0000000   2.8417180   0.0000000


BEGIN_BLOCK_DATAGRID_3D
3D_field
BEGIN_DATAGRID_3D_UNKNOWN
    36    36   108
    0.000000   -4.499387   -7.235856
   2.3926389   4.1441721   0.0000000
  -2.3926389   4.1441721   0.0000000
   0.0000000   0.0000000  14.0770291
  0.69588E-03  0.11634E-02  0.17546E-02  0.25038E-02  0.35443E-02  0.48595E-02
  0.62398E-02  0.74845E-02  0.83774E-02  0.84351E-02  0.71061E-02  0.45234E-02
  0.17922E-02  0.17715E-03  0.17610E-03  0.17285E-02  0.50957E-02  0.10987E-01
  0.19900E-01  0.32024E-01  0.48033E-01  0.69327E-01  0.96958E-01  0.13042E+00
  0.16736E+00  0.20317E+00  0.22990E+00  0.23653E+00  0.21363E+00  0.16020E+00
  0.86415E-01  0.85557E-02 -0.59863E-01 -0.11300E+00 -0.15110E+00 -0.17642E+00
  0.62882E-03  0.10047E-02  0.14918E-02  0.22433E-02  0.33067E-02  0.44820E-02
  0.55623E-02  0.64859E-02  0.70554E-02  0.67898E-02  0.54497E-02  0.35828E-02
  0.21448E-02  0.16553E-02  0.21732E-02  0.40485E-02  0.80813E-02  0.14791E-01
  0.24226E-01  0.36936E-01  0.54467E-01  0.78123E-01  0.10741E+00  0.14005E+00
  0.17251E+00  0.19868E+00  0.20819E+00  0.18925E+00  0.13668E+00  0.58269E-01
 -0.28189E-01 -0.10547E+00 -0.16538E+00 -0.20839E+00 -0.23790E+00 -0.25643E+00
  0.27583E-03  0.49919E-03  0.93255E-03  0.17046E-02  0.26899E-02  0.36545E-02
  0.45402E-02  0.53260E-02  0.57074E-02  0.53118E-02  0.42707E-02  0.31930E-02
  0.25027E-02  0.22547E-02  0.27648E-02  0.48647E-02  0.91820E-02  0.15750E-01
  0.24951E-01  0.38325E-01  0.57464E-01  0.82269E-01  0.11108E+00  0.14180E+00
  0.17030E+00  0.18655E+00  0.17516E+00  0.12450E+00  0.38171E-01 -0.63877E-01
 -0.15746E+00 -0.22862E+00 -0.27744E+00 -0.31054E+00 -0.33289E+00 -0.34639E+00
 -0.45955E-03 -0.35168E-03  0.81781E-04  0.81419E-03  0.16277E-02  0.24223E-02
  0.32628E-02  0.40399E-02  0.43974E-02  0.41711E-02  0.36092E-02  0.29627E-02
  0.22246E-02  0.16045E-02  0.18729E-02  0.37422E-02  0.72988E-02  0.12786E-01
  0.21642E-01  0.35683E-01  0.55274E-01  0.79525E-01  0.10812E+00  0.13988E+00
  0.16645E+00  0.16903E+00  0.12708E+00  0.35383E-01 -0.86936E-01 -0.20690E+00
 -0.29915E+00 -0.35863E+00 -0.39525E+00 -0.41998E+00 -0.43742E+00 -0.44783E+00
 -0.15834E-02 -0.15208E-02 -0.11032E-02 -0.50310E-03  0.13143E-03  0.88569E-03
  0.18388E-02  0.27759E-02  0.33786E-02  0.35484E-02  0.32752E-02  0.24102E-02
  0.99929E-03 -0.32249E-03 -0.80893E-03 -0.31523E-03  0.12502E-02  0.51639E-02
  0.13479E-01  0.27071E-01  0.45546E-01  0.69803E-01  0.10183E+00  0.13723E+00
  0.15713E+00  0.13289E+00  0.46297E-01 -0.91355E-01 -0.24200E+00 -0.36548E+00
 -0.44420E+00 -0.48669E+00 -0.51166E+00 -0.53127E+00 -0.54717E+00 -0.55627E+00
 -0.30628E-02 -0.30149E-02 -0.26629E-02 -0.22029E-02 -0.16049E-02 -0.65938E-03
  0.64558E-03  0.20175E-02  0.31110E-02  0.36125E-02  0.31288E-02  0.14388E-02
 -0.10598E-02 -0.36390E-02 -0.60757E-02 -0.84701E-02 -0.98756E-02 -0.80473E-02
 -0.13393E-02  0.10313E-01  0.27908E-01  0.55164E-01  0.92497E-01  0.12563E+00
  0.12344E+00  0.55495E-01 -0.81472E-01 -0.25368E+00 -0.41002E+00 -0.51551E+00
 -0.56941E+00 -0.59519E+00 -0.61634E+00 -0.64071E+00 -0.66203E+00 -0.67056E+00
 -0.48885E-02 -0.48264E-02 -0.44925E-02 -0.39882E-02 -0.31054E-02 -0.16170E-02
  0.36955E-03  0.24432E-02  0.40529E-02  0.45212E-02  0.32541E-02  0.25389E-03
 -0.38848E-02 -0.88266E-02 -0.14841E-01 -0.21585E-01 -0.26982E-01 -0.28416E-01
 -0.24715E-01 -0.15114E-01  0.36499E-02  0.34900E-01  0.71377E-01  0.86999E-01
  0.46223E-01 -0.69563E-01 -0.24075E+00 -0.41640E+00 -0.54731E+00 -0.61761E+00
 -0.64872E+00 -0.67534E+00 -0.71672E+00 -0.76572E+00 -0.79948E+00 -0.79948E+00
 -0.70025E-02 -0.67813E-02 -0.62193E-02 -0.52808E-02 -0.36647E-02 -0.12390E-02
  0.17081E-02  0.45501E-02  0.64075E-02  0.63155E-02  0.37547E-02 -0.10030E-02
 -0.75433E-02 -0.16211E-01 -0.27510E-01 -0.40287E-01 -0.51364E-01 -0.57576E-01
 -0.57112E-01 -0.47892E-01 -0.26905E-01  0.37348E-02  0.27285E-01  0.12690E-01
 -0.67105E-01 -0.21021E+00 -0.37835E+00 -0.51921E+00 -0.60304E+00 -0.64276E+00
 -0.68009E+00 -0.74922E+00 -0.84807E+00 -0.93880E+00 -0.97573E+00 -0.93880E+00
 -0.91355E-02 -0.84436E-02 -0.72404E-02 -0.53878E-02 -0.26220E-02  0.99173E-03
  0.49349E-02  0.83058E-02  0.99254E-02  0.87896E-02  0.47014E-02 -0.19534E-02
 -0.11462E-01 -0.25234E-01 -0.43971E-01 -0.65307E-01 -0.84128E-01 -0.95442E-01
 -0.96253E-01 -0.85151E-01 -0.63381E-01 -0.40092E-01 -0.36178E-01 -0.76864E-01
 -0.17266E+00 -0.30403E+00 -0.42843E+00 -0.51049E+00 -0.55248E+00 -0.59660E+00
 -0.69215E+00 -0.85115E+00 -0.10289E+01 -0.11475E+01 -0.11475E+01 -0.10289E+01
 -0.10763E-01 -0.92146E-02 -0.69491E-02 -0.38221E-02  0.25879E-03  0.49917E-02
  0.96435E-02  0.13076E-01  0.14025E-01  0.11842E-01  0.68001E-02 -0.11428E-02
 -0.13980E-01 -0.34840E-01 -0.64201E-01 -0.96929E-01 -0.12403E+00 -0.13788E+00
 -0.13597E+00 -0.12091E+00 -0.99659E-01 -0.84593E-01 -0.92634E-01 -0.13678E+00
 -0.21273E+00 -0.29458E+00 -0.35135E+00 -0.37707E+00 -0.40773E+00 -0.50231E+00
 -0.69425E+00 -0.95034E+00 -0.11751E+01 -0.12649E+01 -0.11751E+01 -0.95034E+00
 -0.11284E-01 -0.85901E-02 -0.50395E-02 -0.60852E-03  0.45708E-02  0.10037E-01
  0.14931E-01  0.18042E-01  0.18445E-01  0.16269E-01  0.11930E-01  0.36381E-02
 -0.13693E-01 -0.44878E-01 -0.88175E-01 -0.13291E+00 -0.16494E+00 -0.17559E+00
 -0.16611E+00 -0.14473E+00 -0.12145E+00 -0.10601E+00 -0.10680E+00 -0.12567E+00
 -0.15121E+00 -0.16241E+00 -0.14934E+00 -0.13637E+00 -0.18091E+00 -0.33545E+00
 -0.59614E+00 -0.88189E+00 -0.10701E+01 -0.10701E+01 -0.88189E+00 -0.59614E+00
 -0.10305E-01 -0.64206E-02 -0.17114E-02  0.36637E-02  0.94570E-02  0.15198E-01
  0.20012E-01  0.22928E-01  0.23877E-01  0.23758E-01  0.21905E-01  0.12964E-01
 -0.11732E-01 -0.56605E-01 -0.11424E+00 -0.16658E+00 -0.19595E+00 -0.19651E+00
 -0.17548E+00 -0.14482E+00 -0.11294E+00 -0.83503E-01 -0.57103E-01 -0.29212E-01
  0.12077E-01  0.77481E-01  0.15684E+00  0.20768E+00  0.17337E+00  0.26672E-01
 -0.19489E+00 -0.39635E+00 -0.47768E+00 -0.39635E+00 -0.19489E+00  0.26672E-01
 -0.78371E-02 -0.30168E-02  0.24009E-02  0.81832E-02  0.14168E-01  0.19957E-01
  0.24768E-01  0.28263E-01  0.31450E-01  0.35121E-01  0.35708E-01  0.23423E-01
 -0.12073E-01 -0.70905E-01 -0.13746E+00 -0.18791E+00 -0.20579E+00 -0.19146E+00
 -0.15716E+00 -0.11428E+00 -0.66280E-01 -0.10974E-01  0.55914E-01  0.14192E+00
  0.25741E+00  0.40514E+00  0.56605E+00  0.69942E+00  0.76564E+00  0.75552E+00
  0.70045E+00  0.65323E+00  0.65323E+00  0.70045E+00  0.75552E+00  0.76564E+00
 -0.43024E-02  0.99513E-03  0.66071E-02  0.12442E-01  0.18507E-01  0.24405E-01
  0.29589E-01  0.34606E-01  0.41050E-01  0.48077E-01  0.48146E-01  0.28590E-01
 -0.18548E-01 -0.85846E-01 -0.15062E+00 -0.18847E+00 -0.18901E+00 -0.15906E+00
 -0.11180E+00 -0.54089E-01  0.16180E-01  0.10508E+00  0.21995E+00  0.37109E+00
  0.56979E+00  0.81922E+00  0.11067E+01  0.14060E+01  0.16867E+01  0.19190E+01
  0.20744E+01  0.21295E+01  0.20744E+01  0.19190E+01  0.16867E+01  0.14060E+01
 -0.33242E-03  0.50224E-02  0.10564E-01  0.16440E-01  0.22678E-01  0.28789E-01
  0.34615E-01  0.41400E-01  0.50185E-01  0.57347E-01  0.52375E-01  0.23472E-01
 -0.31145E-01 -0.96633E-01 -0.14811E+00 -0.16644E+00 -0.14892E+00 -0.10547E+00
 -0.45600E-01  0.29913E-01  0.12731E+00  0.25512E+00  0.42404E+00  0.64898E+00
  0.94683E+00  0.13300E+01  0.17994E+01  0.23354E+01  0.28838E+01  0.33502E+01
  0.36225E+01  0.36225E+01  0.33502E+01  0.28838E+01  0.23354E+01  0.17994E+01
  0.35427E-02  0.87882E-02  0.14306E-01  0.20346E-01  0.26748E-01  0.32974E-01
  0.39259E-01  0.46812E-01  0.55024E-01  0.57832E-01  0.44696E-01  0.84879E-02
 -0.45476E-01 -0.98669E-01 -0.12974E+00 -0.12752E+00 -0.94686E-01 -0.39572E-01
  0.34318E-01  0.13129E+00  0.26006E+00  0.43172E+00  0.66176E+00  0.97157E+00
  0.13862E+01  0.19285E+01  0.26036E+01  0.33720E+01  0.41231E+01  0.46858E+01
  0.48963E+01  0.46858E+01  0.41231E+01  0.33720E+01  0.26036E+01  0.19285E+01
  0.70910E-02  0.12291E-01  0.17906E-01  0.24088E-01  0.30457E-01  0.36525E-01
  0.42567E-01  0.48861E-01  0.52960E-01  0.48227E-01  0.27270E-01 -0.10858E-01
 -0.56061E-01 -0.90909E-01 -0.10071E+00 -0.80997E-01 -0.35640E-01  0.31474E-01
  0.12229E+00  0.24423E+00  0.40809E+00  0.62885E+00  0.92751E+00  0.13309E+01
  0.18689E+01  0.25642E+01  0.34062E+01  0.43114E+01  0.51076E+01  0.55812E+01
  0.55812E+01  0.51076E+01  0.43114E+01  0.34062E+01  0.25642E+01  0.18689E+01
  0.10312E-01  0.15558E-01  0.21272E-01  0.27450E-01  0.33588E-01  0.39154E-01
  0.43897E-01  0.46777E-01  0.44451E-01  0.31905E-01  0.63643E-02 -0.28146E-01
 -0.60244E-01 -0.76448E-01 -0.68279E-01 -0.34648E-01  0.22372E-01  0.10340E+00
  0.21391E+00  0.36345E+00  0.56595E+00  0.84102E+00  0.12133E+01  0.17102E+01
  0.23575E+01  0.31640E+01  0.40859E+01  0.49917E+01  0.56732E+01  0.59286E+01
  0.56732E+01  0.49917E+01  0.40859E+01  0.31640E+01  0.23575E+01  0.17102E+01
  0.13252E-01  0.18567E-01  0.24351E-01  0.30456E-01  0.36236E-01  0.40866E-01
  0.43302E-01  0.41612E-01  0.32808E-01  0.14493E-01 -0.12121E-01 -0.40309E-01
 -0.59533E-01 -0.60288E-01 -0.38022E-01  0.76089E-02  0.77006E-01  0.17391E+00
  0.30602E+00  0.48550E+00  0.73023E+00  0.10631E+01  0.15084E+01  0.20890E+01
  0.28196E+01  0.36854E+01  0.46040E+01  0.54067E+01  0.58829E+01  0.58829E+01
  0.54067E+01  0.46040E+01  0.36854E+01  0.28196E+01  0.20890E+01  0.15084E+01
  0.15957E-01  0.21418E-01  0.27342E-01  0.33352E-01  0.38585E-01  0.41927E-01
  0.41825E-01  0.36013E-01  0.22187E-01  0.48316E-04 -0.26483E-01 -0.49098E-01
 -0.58110E-01 -0.46706E-01 -0.12534E-01  0.44841E-01  0.12769E+00  0.24183E+00
  0.39711E+00  0.60884E+00  0.89810E+00  0.12886E+01  0.18025E+01  0.24573E+01
  0.32550E+01  0.41516E+01  0.50236E+01  0.56765E+01  0.59207E+01  0.56765E+01
  0.50236E+01  0.41516E+01  0.32550E+01  0.24573E+01  0.18025E+01  0.12886E+01
  0.18567E-01  0.24351E-01  0.30456E-01  0.36236E-01  0.40866E-01  0.43302E-01
  0.41612E-01  0.32808E-01  0.14493E-01 -0.12121E-01 -0.40309E-01 -0.59533E-01
 -0.60288E-01 -0.38022E-01  0.76090E-02  0.77006E-01  0.17391E+00  0.30602E+00
  0.48550E+00  0.73023E+00  0.10631E+01  0.15084E+01  0.20890E+01  0.28196E+01
  0.36854E+01  0.46040E+01  0.54067E+01  0.58829E+01  0.58829E+01  0.54067E+01
  0.46040E+01  0.36854E+01  0.28196E+01  0.20890E+01  0.15084E+01  0.10631E+01
  0.21272E-01  0.27450E-01  0.33588E-01  0.39154E-01  0.43897E-01  0.46777E-01
  0.44451E-01  0.31905E-01  0.63643E-02 -0.28146E-01 -0.60244E-01 -0.76448E-01
 -0.68279E-01 -0.34648E-01  0.22372E-01  0.10340E+00  0.21391E+00  0.36345E+00
  0.56595E+00  0.84102E+00  0.12133E+01  0.17102E+01  0.23575E+01  0.31640E+01
  0.40859E+01  0.49917E+01  0.56732E+01  0.59286E+01  0.56732E+01  0.49917E+01
  0.40859E+01  0.31640E+01  0.23575E+01  0.17102E+01  0.12133E+01  0.84102E+00
  0.24088E-01  0.30457E-01  0.36525E-01  0.42567E-01  0.48861E-01  0.52960E-01
  0.48227E-01  0.27270E-01 -0.10858E-01 -0.56061E-01 -0.90909E-01 -0.10071E+00
 -0.80997E-01 -0.35640E-01  0.31474E-01  0.12229E+00  0.24423E+00  0.40809E+00
  0.62885E+00  0.92751E+00  0.13309E+01  0.18689E+01  0.25642E+01  0.34062E+01
  0.43114E+01  0.51076E+01  0.55812E+01  0.55812E+01  0.51076E+01  0.43114E+01
  0.34062E+01  0.25642E+01  0.18689E+01  0.13309E+01  0.92751E+00  0.62885E+00
  0.26748E-01  0.32974E-01  0.39259E-01  0.46812E-01  0.55024E-01  0.57831E-01
  0.44696E-01  0.84879E-02 -0.45476E-01 -0.98669E-01 -0.12974E+00 -0.12752E+00
 -0.94686E-01 -0.39572E-01  0.34318E-01  0.13129E+00  0.26006E+00  0.43172E+00
  0.66176E+00  0.97157E+00  0.13862E+01  0.19285E+01  0.26036E+01  0.33720E+01
  0.41231E+01  0.46858E+01  0.48963E+01  0.46858E+01  0.41231E+01  0.33720E+01
  0.26036E+01  0.19285E+01  0.13862E+01  0.97157E+00  0.66176E+00  0.43172E+00
  0.28789E-01  0.34615E-01  0.41400E-01  0.50185E-01  0.57347E-01  0.52375E-01
  0.23472E-01 -0.31145E-01 -0.96633E-01 -0.14811E+00 -0.16644E+00 -0.14892E+00
 -0.10547E+00 -0.45600E-01  0.29913E-01  0.12731E+00  0.25512E+00  0.42404E+00
  0.64898E+00  0.94683E+00  0.13300E+01  0.17994E+01  0.23354E+01  0.28838E+01
  0.33502E+01  0.36225E+01  0.36225E+01  0.33502E+01  0.28838E+01  0.23354E+01
  0.17994E+01  0.13300E+01  0.94683E+00  0.64898E+00  0.42404E+00  0.25512E+00
  0.29589E-01  0.34606E-01  0.41050E-01  0.48077E-01  0.48146E-01  0.28590E-01
 -0.18548E-01 -0.85846E-01 -0.15062E+00 -0.18847E+00 -0.18901E+00 -0.15906E+00
 -0.11180E+00 -0.54089E-01  0.16180E-01  0.10508E+00  0.21995E+00  0.37109E+00
  0.56979E+00  0.81922E+00  0.11067E+01  0.14060E+01  0.16867E+01  0.19190E+01
  0.20744E+01  0.21295E+01  0.20744E+01  0.19190E+01  0.16867E+01  0.14060E+01
  0.11067E+01  0.81922E+00  0.56979E+00  0.37109E+00  0.21995E+00  0.10508E+00
  0.28263E-01  0.31450E-01  0.35121E-01  0.35708E-01  0.23423E-01 -0.12073E-01
 -0.70905E-01 -0.13746E+00 -0.18791E+00 -0.20579E+00 -0.19146E+00 -0.15716E+00
 -0.11428E+00 -0.66280E-01 -0.10974E-01  0.55914E-01  0.14192E+00  0.25741E+00
  0.40514E+00  0.56605E+00  0.69942E+00  0.76564E+00  0.75552E+00  0.70045E+00
  0.65323E+00  0.65323E+00  0.70045E+00  0.75552E+00  0.76564E+00  0.69942E+00
  0.56605E+00  0.40514E+00  0.25741E+00  0.14192E+00  0.55914E-01 -0.10974E-01
  0.23877E-01  0.23758E-01  0.21905E-01  0.12964E-01 -0.11732E-01 -0.56605E-01
 -0.11424E+00 -0.16658E+00 -0.19595E+00 -0.19651E+00 -0.17548E+00 -0.14482E+00
 -0.11294E+00 -0.83503E-01 -0.57103E-01 -0.29212E-01  0.12077E-01  0.77481E-01
  0.15684E+00  0.20768E+00  0.17337E+00  0.26672E-01 -0.19489E+00 -0.39635E+00
 -0.47768E+00 -0.39635E+00 -0.19489E+00  0.26672E-01  0.17337E+00  0.20768E+00
  0.15684E+00  0.77481E-01  0.12077E-01 -0.29212E-01 -0.57103E-01 -0.83503E-01
  0.16269E-01  0.11930E-01  0.36381E-02 -0.13693E-01 -0.44878E-01 -0.88175E-01
 -0.13291E+00 -0.16494E+00 -0.17559E+00 -0.16611E+00 -0.14473E+00 -0.12145E+00
 -0.10601E+00 -0.10680E+00 -0.12567E+00 -0.15121E+00 -0.16241E+00 -0.14934E+00
 -0.13637E+00 -0.18091E+00 -0.33545E+00 -0.59614E+00 -0.88189E+00 -0.10701E+01
 -0.10701E+01 -0.88189E+00 -0.59614E+00 -0.33545E+00 -0.18091E+00 -0.13637E+00
 -0.14934E+00 -0.16241E+00 -0.15121E+00 -0.12567E+00 -0.10680E+00 -0.10601E+00
  0.68001E-02 -0.11428E-02 -0.13980E-01 -0.34840E-01 -0.64201E-01 -0.96929E-01
 -0.12403E+00 -0.13788E+00 -0.13597E+00 -0.12091E+00 -0.99659E-01 -0.84593E-01
 -0.92634E-01 -0.13678E+00 -0.21273E+00 -0.29458E+00 -0.35135E+00 -0.37707E+00
 -0.40773E+00 -0.50231E+00 -0.69425E+00 -0.95034E+00 -0.11751E+01 -0.12649E+01
 -0.11751E+01 -0.95034E+00 -0.69425E+00 -0.50231E+00 -0.40773E+00 -0.37707E+00
 -0.35135E+00 -0.29458E+00 -0.21273E+00 -0.13678E+00 -0.92634E-01 -0.84593E-01
 -0.19534E-02 -0.11462E-01 -0.25234E-01 -0.43971E-01 -0.65307E-01 -0.84128E-01
 -0.95442E-01 -0.96253E-01 -0.85151E-01 -0.63381E-01 -0.40092E-01 -0.36178E-01
 -0.76865E-01 -0.17266E+00 -0.30403E+00 -0.42843E+00 -0.51049E+00 -0.55248E+00
 -0.59660E+00 -0.69215E+00 -0.85115E+00 -0.10289E+01 -0.11475E+01 -0.11475E+01
 -0.10289E+01 -0.85115E+00 -0.69215E+00 -0.59660E+00 -0.55248E+00 -0.51049E+00
 -0.42843E+00 -0.30403E+00 -0.17266E+00 -0.76864E-01 -0.36178E-01 -0.40092E-01
 -0.75433E-02 -0.16211E-01 -0.27510E-01 -0.40287E-01 -0.51364E-01 -0.57576E-01
 -0.57112E-01 -0.47892E-01 -0.26905E-01  0.37348E-02  0.27285E-01  0.12690E-01
 -0.67105E-01 -0.21021E+00 -0.37835E+00 -0.51921E+00 -0.60304E+00 -0.64276E+00
 -0.68009E+00 -0.74922E+00 -0.84807E+00 -0.93880E+00 -0.97573E+00 -0.93880E+00
 -0.84807E+00 -0.74922E+00 -0.68009E+00 -0.64276E+00 -0.60304E+00 -0.51921E+00
 -0.37835E+00 -0.21021E+00 -0.67105E-01  0.12690E-01  0.27285E-01  0.37348E-02
 -0.88266E-02 -0.14841E-01 -0.21585E-01 -0.26982E-01 -0.28416E-01 -0.24715E-01
 -0.15114E-01  0.36499E-02  0.34900E-01  0.71377E-01  0.86999E-01  0.46223E-01
 -0.69563E-01 -0.24075E+00 -0.41640E+00 -0.54731E+00 -0.61761E+00 -0.64872E+00
 -0.67534E+00 -0.71672E+00 -0.76572E+00 -0.79948E+00 -0.79948E+00 -0.76572E+00
 -0.71672E+00 -0.67534E+00 -0.64872E+00 -0.61761E+00 -0.54731E+00 -0.41640E+00
 -0.24075E+00 -0.69563E-01  0.46223E-01  0.86999E-01  0.71377E-01  0.34900E-01
 -0.60757E-02 -0.84701E-02 -0.98756E-02 -0.80473E-02 -0.13393E-02  0.10313E-01
  0.27908E-01  0.55164E-01  0.92497E-01  0.12563E+00  0.12344E+00  0.55495E-01
 -0.81472E-01 -0.25368E+00 -0.41002E+00 -0.51551E+00 -0.56941E+00 -0.59519E+00
 -0.61634E+00 -0.64071E+00 -0.66203E+00 -0.67056E+00 -0.66203E+00 -0.64071E+00
 -0.61634E+00 -0.59519E+00 -0.56941E+00 -0.51551E+00 -0.41002E+00 -0.25368E+00
 -0.81472E-01  0.55495E-01  0.12344E+00  0.12563E+00  0.92497E-01  0.55164E-01
 -0.31522E-03  0.12502E-02  0.51639E-02  0.13479E-01  0.27071E-01  0.45546E-01
  0.69803E-01  0.10183E+00  0.13723E+00  0.15713E+00  0.13289E+00  0.46297E-01
 -0.91355E-01 -0.24200E+00 -0.36548E+00 -0.44420E+00 -0.48669E+00 -0.51166E+00
 -0.53127E+00 -0.54717E+00 -0.55627E+00 -0.55627E+00 -0.54717E+00 -0.53127E+00
 -0.51166E+00 -0.48669E+00 -0.44420E+00 -0.36548E+00 -0.24200E+00 -0.91355E-01
  0.46297E-01  0.13289E+00  0.15713E+00  0.13723E+00  0.10183E+00  0.69803E-01
  0.72988E-02  0.12786E-01  0.21642E-01  0.35683E-01  0.55274E-01  0.79525E-01
  0.10812E+00  0.13988E+00  0.16645E+00  0.16903E+00  0.12708E+00  0.35383E-01
 -0.86936E-01 -0.20690E+00 -0.29915E+00 -0.35863E+00 -0.39525E+00 -0.41998E+00
 -0.43742E+00 -0.44783E+00 -0.45123E+00 -0.44783E+00 -0.43742E+00 -0.41998E+00
 -0.39525E+00 -0.35863E+00 -0.29915E+00 -0.20690E+00 -0.86936E-01  0.35383E-01
  0.12708E+00  0.16903E+00  0.16645E+00  0.13988E+00  0.10812E+00  0.79525E-01
  0.70504E-03  0.11850E-02  0.18014E-02  0.25871E-02  0.36708E-02  0.50382E-02
  0.64919E-02  0.78378E-02  0.88344E-02  0.89434E-02  0.75714E-02  0.48650E-02
  0.19886E-02  0.26147E-03  0.20124E-03  0.17480E-02  0.51665E-02  0.11169E-01
  0.20253E-01  0.32633E-01  0.49051E-01  0.70987E-01  0.99548E-01  0.13428E+00
  0.17288E+00  0.21071E+00  0.23942E+00  0.24726E+00  0.22404E+00  0.16857E+00
  0.91663E-01  0.10602E-01 -0.60322E-01 -0.11507E+00 -0.15410E+00 -0.17995E+00
  0.63879E-03  0.10289E-02  0.15412E-02  0.23254E-02  0.34241E-02  0.46400E-02
  0.57756E-02  0.67681E-02  0.73942E-02  0.71392E-02  0.57543E-02  0.38108E-02
  0.22953E-02  0.17453E-02  0.22323E-02  0.41239E-02  0.82286E-02  0.15060E-01
  0.24682E-01  0.37712E-01  0.55782E-01  0.80231E-01  0.11057E+00  0.14460E+00
  0.17887E+00  0.20707E+00  0.21814E+00  0.19932E+00  0.14492E+00  0.63160E-01
 -0.27015E-01 -0.10730E+00 -0.16910E+00 -0.21314E+00 -0.24322E+00 -0.26209E+00
  0.28206E-03  0.51749E-03  0.97326E-03  0.17728E-02  0.27852E-02  0.37797E-02
  0.47041E-02  0.55320E-02  0.59413E-02  0.55462E-02  0.44815E-02  0.33661E-02
  0.26303E-02  0.23412E-02  0.28389E-02  0.49723E-02  0.93629E-02  0.16049E-01
  0.25474E-01  0.39268E-01  0.59065E-01  0.84770E-01  0.11483E+00  0.14736E+00
  0.17823E+00  0.19676E+00  0.18628E+00  0.13413E+00  0.43949E-01 -0.62987E-01
 -0.16083E+00 -0.23472E+00 -0.28484E+00 -0.31849E+00 -0.34115E+00 -0.35487E+00
 -0.46898E-03 -0.35215E-03  0.10054E-03  0.85369E-03  0.16842E-02  0.24968E-02
  0.33623E-02  0.41694E-02  0.45537E-02  0.43445E-02  0.37839E-02  0.31157E-02
  0.23372E-02  0.16826E-02  0.19466E-02  0.38404E-02  0.74468E-02  0.13057E-01
  0.22201E-01  0.36746E-01  0.57071E-01  0.82422E-01  0.11285E+00  0.14742E+00
  0.17728E+00  0.18210E+00  0.13954E+00  0.43716E-01 -0.85053E-01 -0.21144E+00
 -0.30817E+00 -0.36976E+00 -0.40693E+00 -0.43171E+00 -0.44924E+00 -0.45981E+00
 -0.16230E-02 -0.15530E-02 -0.11209E-02 -0.51175E-03  0.12464E-03  0.88476E-03
  0.18600E-02  0.28384E-02  0.34934E-02  0.37083E-02  0.34505E-02  0.25607E-02
  0.11021E-02 -0.26072E-03 -0.77407E-03 -0.30107E-03  0.12815E-02  0.53367E-02
  0.13984E-01  0.28115E-01  0.47464E-01  0.73377E-01  0.10837E+00  0.14789E+00
  0.17153E+00  0.14821E+00  0.58014E-01 -0.87257E-01 -0.24681E+00 -0.37738E+00
 -0.45980E+00 -0.50317E+00 -0.52784E+00 -0.54723E+00 -0.56332E+00 -0.57270E+00
 -0.31459E-02 -0.30920E-02 -0.27355E-02 -0.22845E-02 -0.17005E-02 -0.75098E-03
  0.59526E-03  0.20461E-02  0.32335E-02  0.38059E-02  0.33372E-02  0.16053E-02
 -0.96377E-03 -0.36212E-02 -0.61496E-02 -0.86379E-02 -0.10069E-01 -0.81135E-02
 -0.10918E-02  0.11150E-01  0.30010E-01  0.59889E-01  0.10147E+00  0.13935E+00
  0.13980E+00  0.69680E-01 -0.74891E-01 -0.25780E+00 -0.42395E+00 -0.53541E+00
 -0.59116E+00 -0.61661E+00 -0.63746E+00 -0.66252E+00 -0.68497E+00 -0.69404E+00
 -0.50295E-02 -0.49658E-02 -0.46416E-02 -0.41622E-02 -0.32956E-02 -0.17797E-02
  0.29618E-03  0.25069E-02  0.42551E-02  0.48062E-02  0.35345E-02  0.45659E-03
 -0.37993E-02 -0.88902E-02 -0.15097E-01 -0.22049E-01 -0.27581E-01 -0.28998E-01
 -0.25042E-01 -0.14667E-01  0.60084E-02  0.40851E-01  0.82101E-01  0.10150E+00
  0.60427E-01 -0.61545E-01 -0.24358E+00 -0.43080E+00 -0.56994E+00 -0.64370E+00
 -0.67525E+00 -0.70237E+00 -0.74615E+00 -0.79881E+00 -0.83533E+00 -0.83533E+00
 -0.72200E-02 -0.70018E-02 -0.64572E-02 -0.55407E-02 -0.39122E-02 -0.14025E-02
  0.17061E-02  0.47486E-02  0.67737E-02  0.67501E-02  0.41439E-02 -0.73459E-03
 -0.74402E-02 -0.16344E-01 -0.27995E-01 -0.41210E-01 -0.52693E-01 -0.59110E-01
 -0.58411E-01 -0.48075E-01 -0.24560E-01  0.10002E-01  0.37486E-01  0.24146E-01
 -0.59534E-01 -0.21178E+00 -0.39137E+00 -0.54174E+00 -0.63070E+00 -0.67235E+00
 -0.71200E+00 -0.78678E+00 -0.89423E+00 -0.99296E+00 -0.10332E+01 -0.99296E+00
 -0.94455E-02 -0.87507E-02 -0.75505E-02 -0.56838E-02 -0.28427E-02  0.93569E-03
  0.51173E-02  0.87335E-02  0.10517E-01  0.94125E-02  0.52541E-02 -0.15118E-02
 -0.11190E-01 -0.25322E-01 -0.44727E-01 -0.66976E-01 -0.86675E-01 -0.98451E-01
 -0.98923E-01 -0.86322E-01 -0.61791E-01 -0.35179E-01 -0.29227E-01 -0.71472E-01
 -0.17349E+00 -0.31424E+00 -0.44768E+00 -0.53565E+00 -0.58094E+00 -0.62947E+00
 -0.73446E+00 -0.90842E+00 -0.11023E+01 -0.12315E+01 -0.12315E+01 -0.11023E+01
 -0.11161E-01 -0.95825E-02 -0.72762E-02 -0.40696E-02  0.16790E-03  0.51458E-02
  0.10090E-01  0.13775E-01  0.14858E-01  0.12706E-01  0.76793E-02 -0.23495E-03
 -0.13214E-01 -0.34711E-01 -0.65363E-01 -0.99767E-01 -0.12831E+00 -0.14275E+00
 -0.14024E+00 -0.12339E+00 -0.99608E-01 -0.82368E-01 -0.90238E-01 -0.13751E+00
 -0.21956E+00 -0.30828E+00 -0.37026E+00 -0.39952E+00 -0.43545E+00 -0.54165E+00
 -0.75339E+00 -0.10337E+01 -0.12787E+01 -0.13764E+01 -0.12787E+01 -0.10337E+01
 -0.11731E-01 -0.89597E-02 -0.53068E-02 -0.72388E-03  0.46846E-02  0.10450E-01
  0.15649E-01  0.18992E-01  0.19542E-01  0.17537E-01  0.13501E-01  0.54946E-02
 -0.12058E-01 -0.44479E-01 -0.90030E-01 -0.13733E+00 -0.17119E+00 -0.18227E+00
 -0.17178E+00 -0.14844E+00 -0.12308E+00 -0.10643E+00 -0.10787E+00 -0.12951E+00
 -0.15886E+00 -0.17327E+00 -0.16247E+00 -0.15348E+00 -0.20830E+00 -0.38258E+00
 -0.67049E+00 -0.98331E+00 -0.11885E+01 -0.11885E+01 -0.98331E+00 -0.67049E+00
 -0.10736E-01 -0.67225E-02 -0.18567E-02  0.37247E-02  0.97910E-02  0.15847E-01
  0.20952E-01  0.24106E-01  0.25349E-01  0.25766E-01  0.24672E-01  0.16219E-01
 -0.90821E-02 -0.56148E-01 -0.11712E+00 -0.17266E+00 -0.20384E+00 -0.20432E+00
 -0.18180E+00 -0.14911E+00 -0.11545E+00 -0.85103E-01 -0.58927E-01 -0.31997E-01
  0.85711E-02  0.73933E-01  0.15236E+00  0.19773E+00  0.14985E+00 -0.18671E-01
 -0.26547E+00 -0.48731E+00 -0.57647E+00 -0.48731E+00 -0.26547E+00 -0.18671E-01
 -0.81856E-02 -0.32040E-02  0.24004E-02  0.84159E-02  0.14688E-01  0.20782E-01
  0.25878E-01  0.29716E-01  0.33527E-01  0.38257E-01  0.40022E-01  0.28132E-01
 -0.87219E-02 -0.70824E-01 -0.14150E+00 -0.19521E+00 -0.21433E+00 -0.19925E+00
 -0.16307E+00 -0.11812E+00 -0.68373E-01 -0.11791E-01  0.56105E-01  0.14342E+00
  0.26103E+00  0.41122E+00  0.57288E+00  0.70266E+00  0.75970E+00  0.73647E+00
  0.66853E+00  0.61338E+00  0.61338E+00  0.66853E+00  0.73647E+00  0.75970E+00
 -0.45327E-02  0.93347E-03  0.67402E-02  0.12817E-01  0.19165E-01  0.25356E-01
  0.30871E-01  0.36450E-01  0.43954E-01  0.52500E-01  0.53858E-01  0.34202E-01
 -0.15213E-01 -0.86542E-01 -0.15551E+00 -0.19600E+00 -0.19692E+00 -0.16564E+00
 -0.11632E+00 -0.56526E-01  0.15689E-01  0.10658E+00  0.22392E+00  0.37855E+00
  0.58208E+00  0.83734E+00  0.11307E+01  0.14354E+01  0.17209E+01  0.19575E+01
  0.21162E+01  0.21725E+01  0.21162E+01  0.19575E+01  0.17209E+01  0.14354E+01
 -0.44233E-03  0.50746E-02  0.10812E-01  0.16932E-01  0.23443E-01  0.29852E-01
  0.36110E-01  0.43723E-01  0.53914E-01  0.62742E-01  0.58731E-01  0.28981E-01
 -0.28606E-01 -0.98207E-01 -0.15320E+00 -0.17312E+00 -0.15518E+00 -0.11007E+00
 -0.48160E-01  0.29461E-01  0.12916E+00  0.25982E+00  0.43269E+00  0.66342E+00
  0.96964E+00  0.13645E+01  0.18500E+01  0.24066E+01  0.29785E+01  0.34667E+01
  0.37524E+01  0.37524E+01  0.34667E+01  0.29785E+01  0.24066E+01  0.18500E+01
  0.35379E-02  0.89423E-02  0.14660E-01  0.20941E-01  0.27609E-01  0.34158E-01
  0.40991E-01  0.49551E-01  0.59235E-01  0.63429E-01  0.50610E-01  0.12889E-01
 -0.44194E-01 -0.10086E+00 -0.13429E+00 -0.13261E+00 -0.98829E-01 -0.42008E-01
  0.33858E-01  0.13307E+00  0.26463E+00  0.44014E+00  0.67587E+00  0.99434E+00
  0.14223E+01  0.19846E+01  0.26884E+01  0.34933E+01  0.42828E+01  0.48758E+01
  0.50978E+01  0.48758E+01  0.42828E+01  0.34933E+01  0.26884E+01  0.19846E+01
  0.71778E-02  0.12542E-01  0.18361E-01  0.24779E-01  0.31414E-01  0.37839E-01
  0.44487E-01  0.51769E-01  0.57068E-01  0.53139E-01  0.31823E-01 -0.81215E-02
 -0.56019E-01 -0.93279E-01 -0.10426E+00 -0.84317E-01 -0.37770E-01  0.31014E-01
  0.12385E+00  0.24833E+00  0.41568E+00  0.64156E+00  0.94805E+00  0.13636E+01
  0.19206E+01  0.26445E+01  0.35258E+01  0.44775E+01  0.53170E+01  0.58171E+01
  0.58171E+01  0.53170E+01  0.44775E+01  0.35258E+01  0.26445E+01  0.19206E+01
  0.10484E-01  0.15900E-01  0.21820E-01  0.28236E-01  0.34650E-01  0.40585E-01
  0.45886E-01  0.49531E-01  0.47929E-01  0.35558E-01  0.92075E-02 -0.27026E-01
 -0.61082E-01 -0.78633E-01 -0.70744E-01 -0.36437E-01  0.21872E-01  0.10462E+00
  0.21736E+00  0.36996E+00  0.57691E+00  0.85870E+00  0.12412E+01  0.17539E+01
  0.24254E+01  0.32668E+01  0.42337E+01  0.51874E+01  0.59067E+01  0.61766E+01
  0.59067E+01  0.51874E+01  0.42337E+01  0.32668E+01  0.24254E+01  0.17539E+01
  0.13505E-01  0.18998E-01  0.24994E-01  0.31349E-01  0.37414E-01  0.42385E-01
  0.45256E-01  0.44039E-01  0.35502E-01  0.16898E-01 -0.10720E-01 -0.40346E-01
 -0.60830E-01 -0.62144E-01 -0.39604E-01  0.69558E-02  0.77762E-01  0.17657E+00
  0.31131E+00  0.49457E+00  0.74496E+00  0.10863E+01  0.15445E+01  0.21442E+01
  0.29032E+01  0.38079E+01  0.47725E+01  0.56183E+01  0.61210E+01  0.61210E+01
  0.56183E+01  0.47725E+01  0.38079E+01  0.29032E+01  0.21442E+01  0.15445E+01
  0.16293E-01  0.21945E-01  0.28099E-01  0.34372E-01  0.39893E-01  0.43558E-01
  0.43818E-01  0.38298E-01  0.24439E-01  0.16963E-02 -0.25967E-01 -0.49824E-01
 -0.59646E-01 -0.48315E-01 -0.13524E-01  0.44997E-01  0.12947E+00  0.24583E+00
  0.40427E+00  0.62067E+00  0.91695E+00  0.13179E+01  0.18473E+01  0.25251E+01
  0.33556E+01  0.42944E+01  0.52115E+01  0.59001E+01  0.61580E+01  0.59001E+01
  0.52115E+01  0.42944E+01  0.33556E+01  0.25251E+01  0.18473E+01  0.13179E+01
  0.18998E-01  0.24994E-01  0.31349E-01  0.37414E-01  0.42385E-01  0.45256E-01
  0.44039E-01  0.35502E-01  0.16898E-01 -0.10720E-01 -0.40346E-01 -0.60830E-01
 -0.62144E-01 -0.39604E-01  0.69558E-02  0.77762E-01  0.17657E+00  0.31131E+00
  0.49457E+00  0.74496E+00  0.10863E+01  0.15445E+01  0.21442E+01  0.29032E+01
  0.38079E+01  0.47725E+01  0.56183E+01  0.61210E+01  0.61210E+01  0.56183E+01
  0.47725E+01  0.38079E+01  0.29032E+01  0.21442E+01  0.15445E+01  0.10863E+01
  0.21820E-01  0.28236E-01  0.34650E-01  0.40585E-01  0.45886E-01  0.49531E-01
  0.47929E-01  0.35558E-01  0.92075E-02 -0.27026E-01 -0.61082E-01 -0.78633E-01
 -0.70744E-01 -0.36437E-01  0.21872E-01  0.10462E+00  0.21736E+00  0.36996E+00
  0.57691E+00  0.85870E+00  0.12412E+01  0.17539E+01  0.24254E+01  0.32668E+01
  0.42337E+01  0.51874E+01  0.59067E+01  0.61766E+01  0.59067E+01  0.51874E+01
  0.42337E+01  0.32668E+01  0.24254E+01  0.17539E+01  0.12412E+01  0.85870E+00
  0.24779E-01  0.31414E-01  0.37839E-01  0.44487E-01  0.51769E-01  0.57068E-01
  0.53139E-01  0.31823E-01 -0.81215E-02 -0.56019E-01 -0.93279E-01 -0.10426E+00
 -0.84317E-01 -0.37770E-01  0.31014E-01  0.12385E+00  0.24833E+00  0.41568E+00
  0.64156E+00  0.94805E+00  0.13636E+01  0.19206E+01  0.26445E+01  0.35258E+01
  0.44775E+01  0.53170E+01  0.58171E+01  0.58171E+01  0.53170E+01  0.44775E+01
  0.35258E+01  0.26445E+01  0.19206E+01  0.13636E+01  0.94805E+00  0.64156E+00
  0.27609E-01  0.34158E-01  0.40991E-01  0.49551E-01  0.59235E-01  0.63429E-01
  0.50610E-01  0.12889E-01 -0.44194E-01 -0.10086E+00 -0.13429E+00 -0.13261E+00
 -0.98829E-01 -0.42008E-01  0.33858E-01  0.13307E+00  0.26463E+00  0.44014E+00
  0.67587E+00  0.99434E+00  0.14223E+01  0.19846E+01  0.26884E+01  0.34933E+01
  0.42828E+01  0.48758E+01  0.50978E+01  0.48758E+01  0.42828E+01  0.34933E+01
  0.26884E+01  0.19846E+01  0.14223E+01  0.99434E+00  0.67587E+00  0.44014E+00
  0.29852E-01  0.36110E-01  0.43723E-01  0.53914E-01  0.62742E-01  0.58731E-01
  0.28981E-01 -0.28606E-01 -0.98207E-01 -0.15320E+00 -0.17312E+00 -0.15518E+00
 -0.11007E+00 -0.48160E-01  0.29461E-01  0.12916E+00  0.25982E+00  0.43269E+00
  0.66342E+00  0.96964E+00  0.13645E+01  0.18500E+01  0.24066E+01  0.29785E+01
  0.34667E+01  0.37524E+01  0.37524E+01  0.34667E+01  0.29785E+01  0.24066E+01
  0.18500E+01  0.13645E+01  0.96964E+00  0.66342E+00  0.43269E+00  0.25982E+00
  0.30871E-01  0.36450E-01  0.43954E-01  0.52500E-01  0.53858E-01  0.34202E-01
 -0.15213E-01 -0.86542E-01 -0.15551E+00 -0.19600E+00 -0.19692E+00 -0.16564E+00
 -0.11632E+00 -0.56526E-01  0.15689E-01  0.10658E+00  0.22392E+00  0.37855E+00
  0.58208E+00  0.83734E+00  0.11307E+01  0.14354E+01  0.17209E+01  0.19575E+01