       #
       # Generated by the Wannier90 code http://www.wannier.org
       # On 16May2012 at 16:37:13 
       #
CRYSTAL
PRIMVEC
   1.2305000   2.1312885   0.0000000
  -1.2305000   2.1312885   0.0000000
   0.0000000   0.0000000   7.1042951
CONVVEC
   1.2305000   2.1312885   0.0000000
  -1.2305000   2.1312885   0.0000000
   0.0000000   0.0000000   7.1042951
PRIMCOORD
     2  1
C       0.0000000   1.4208590   0.0000000
C       0.0000000   2.8417180   0.0000000


BEGIN_BLOCK_DATAGRID_3D
3D_field
BEGIN_DATAGRID_3D_UNKNOWN
    36    36   108
    0.000000   -4.499387   -7.235856
   2.3926389   4.1441721   0.0000000
  -2.3926389   4.1441721   0.0000000
   0.0000000   0.0000000  14.0770291
  0.14383E-02  0.18866E-02  0.23438E-02  0.27830E-02  0.32086E-02  0.36478E-02
  0.41179E-02  0.45881E-02  0.49604E-02  0.50956E-02  0.48864E-02  0.43363E-02
  0.35813E-02  0.28309E-02  0.22818E-02  0.20773E-02  0.23185E-02  0.30758E-02
  0.43731E-02  0.61830E-02  0.84627E-02  0.11187E-01  0.14330E-01  0.17792E-01
  0.21325E-01  0.24435E-01  0.26331E-01  0.26042E-01  0.22822E-01  0.16648E-01
  0.83881E-02 -0.59497E-03 -0.90782E-02 -0.16352E-01 -0.22147E-01 -0.26393E-01
  0.18866E-02  0.23948E-02  0.29188E-02  0.34664E-02  0.40659E-02  0.47448E-02
  0.54950E-02  0.62247E-02  0.67356E-02  0.67868E-02  0.62430E-02  0.51963E-02
  0.39391E-02  0.28110E-02  0.20668E-02  0.18589E-02  0.22759E-02  0.33483E-02
  0.50457E-02  0.73259E-02  0.10193E-01  0.13664E-01  0.17664E-01  0.21954E-01
  0.26111E-01  0.29426E-01  0.30829E-01  0.29115E-01  0.23592E-01  0.14688E-01
  0.38935E-02 -0.70155E-02 -0.16777E-01 -0.24841E-01 -0.31059E-01 -0.35396E-01
  0.23438E-02  0.29188E-02  0.35539E-02  0.42873E-02  0.51562E-02  0.61757E-02
  0.72870E-02  0.82817E-02  0.88025E-02  0.85099E-02  0.73293E-02  0.55541E-02
  0.36905E-02  0.21961E-02  0.13441E-02  0.12519E-02  0.19457E-02  0.33910E-02
  0.55477E-02  0.84406E-02  0.12136E-01  0.16614E-01  0.21692E-01  0.27050E-01
  0.32136E-01  0.35874E-01  0.36585E-01  0.32640E-01  0.23606E-01  0.10838E-01
 -0.31896E-02 -0.16255E-01 -0.27237E-01 -0.35930E-01 -0.42398E-01 -0.46667E-01
  0.27830E-02  0.34664E-02  0.42873E-02  0.53026E-02  0.65571E-02  0.80441E-02
  0.95977E-02  0.10799E-01  0.11083E-01  0.10076E-01  0.79099E-02  0.51965E-02
  0.26794E-02  0.88695E-03  0.39198E-04  0.15325E-03  0.11682E-02  0.30388E-02
  0.58054E-02  0.95728E-02  0.14378E-01  0.20113E-01  0.26608E-01  0.33581E-01
  0.40162E-01  0.44370E-01  0.43494E-01  0.35662E-01  0.21418E-01  0.37051E-02
 -0.13876E-01 -0.28973E-01 -0.40982E-01 -0.50195E-01 -0.56858E-01 -0.60933E-01
  0.32086E-02  0.40659E-02  0.51562E-02  0.65571E-02  0.83241E-02  0.10381E-01
  0.12341E-01  0.13482E-01  0.13070E-01  0.10876E-01  0.74258E-02  0.37147E-02
  0.65668E-03 -0.12719E-02 -0.20014E-02 -0.16387E-02 -0.26109E-03  0.21809E-02
  0.58259E-02  0.10751E-01  0.16895E-01  0.24208E-01  0.32722E-01  0.42025E-01
  0.50269E-01  0.53939E-01  0.49393E-01  0.35428E-01  0.14560E-01 -0.83661E-02
 -0.29080E-01 -0.45751E-01 -0.58610E-01 -0.68375E-01 -0.75218E-01 -0.78806E-01
  0.36478E-02  0.47448E-02  0.61757E-02  0.80441E-02  0.10381E-01  0.12929E-01
  0.14963E-01  0.15476E-01  0.13770E-01  0.10020E-01  0.52621E-02  0.78613E-03
 -0.25225E-02 -0.43991E-02 -0.49595E-02 -0.43382E-02 -0.24858E-02  0.78924E-03
  0.56123E-02  0.11918E-01  0.19643E-01  0.29000E-01  0.40119E-01  0.51797E-01
  0.60469E-01  0.61097E-01  0.50150E-01  0.28406E-01  0.88920E-03 -0.26214E-01
 -0.48972E-01 -0.66725E-01 -0.80528E-01 -0.91096E-01 -0.98046E-01 -0.10051E+00
  0.41179E-02  0.54950E-02  0.72870E-02  0.95977E-02  0.12341E-01  0.14963E-01
  0.16406E-01  0.15590E-01  0.12170E-01  0.69007E-02  0.12295E-02 -0.35415E-02
 -0.68109E-02 -0.86019E-02 -0.90933E-02 -0.82319E-02 -0.57109E-02 -0.12682E-02
  0.50375E-02  0.12965E-01  0.22574E-01  0.34276E-01  0.47738E-01  0.60248E-01
  0.66486E-01  0.60978E-01  0.41847E-01  0.12642E-01 -0.19670E-01 -0.48940E-01
 -0.72717E-01 -0.91765E-01 -0.10741E+00 -0.11945E+00 -0.12624E+00 -0.12624E+00
  0.45881E-02  0.62247E-02  0.82817E-02  0.10799E-01  0.13482E-01  0.15476E-01
  0.15590E-01  0.13010E-01  0.79713E-02  0.17225E-02 -0.42241E-02 -0.89192E-02
 -0.12199E-01 -0.14248E-01 -0.14995E-01 -0.13918E-01 -0.10403E-01 -0.43071E-02
  0.39145E-02  0.13778E-01  0.25371E-01  0.38889E-01  0.52957E-01  0.63314E-01
  0.63909E-01  0.50453E-01  0.23743E-01 -0.10344E-01 -0.44517E-01 -0.74341E-01
 -0.99597E-01 -0.12197E+00 -0.14166E+00 -0.15602E+00 -0.16138E+00 -0.15602E+00
  0.49604E-02  0.67356E-02  0.88025E-02  0.11083E-01  0.13070E-01  0.13770E-01
  0.12170E-01  0.79713E-02  0.19365E-02 -0.45544E-02 -0.10375E-01 -0.15184E-01
 -0.19163E-01 -0.22263E-01 -0.23688E-01 -0.22191E-01 -0.16985E-01 -0.84312E-02
  0.22841E-02  0.14220E-01  0.27218E-01  0.40902E-01  0.52855E-01  0.58128E-01
  0.51436E-01  0.30800E-01 -0.52823E-03 -0.35944E-01 -0.69890E-01 -0.10099E+00
 -0.13107E+00 -0.16099E+00 -0.18734E+00 -0.20329E+00 -0.20329E+00 -0.18734E+00
  0.50956E-02  0.67868E-02  0.85099E-02  0.10076E-01  0.10876E-01  0.10020E-01
  0.69007E-02  0.17225E-02 -0.45544E-02 -0.10897E-01 -0.16902E-01 -0.22815E-01
 -0.28745E-01 -0.33764E-01 -0.35857E-01 -0.33055E-01 -0.24908E-01 -0.12911E-01
  0.62431E-03  0.14149E-01  0.27185E-01  0.38895E-01  0.46469E-01  0.45441E-01
  0.32328E-01  0.74767E-02 -0.24732E-01 -0.59073E-01 -0.93501E-01 -0.12999E+00
 -0.17065E+00 -0.21232E+00 -0.24518E+00 -0.25782E+00 -0.24518E+00 -0.21232E+00
  0.48864E-02  0.62430E-02  0.73293E-02  0.79099E-02  0.74258E-02  0.52621E-02
  0.12295E-02 -0.42241E-02 -0.10375E-01 -0.16902E-01 -0.24179E-01 -0.32657E-01
 -0.41644E-01 -0.48647E-01 -0.50293E-01 -0.44481E-01 -0.32009E-01 -0.16114E-01
 -0.28078E-03  0.13609E-01  0.25091E-01  0.33337E-01  0.35892E-01  0.29538E-01
  0.12739E-01 -0.12755E-01 -0.43241E-01 -0.76740E-01 -0.11541E+00 -0.16308E+00
 -0.21868E+00 -0.27154E+00 -0.30456E+00 -0.30456E+00 -0.27154E+00 -0.21868E+00
  0.43363E-02  0.51963E-02  0.55541E-02  0.51965E-02  0.37147E-02  0.78613E-03
 -0.35415E-02 -0.89192E-02 -0.15184E-01 -0.22815E-01 -0.32657E-01 -0.44657E-01
 -0.56553E-01 -0.64043E-01 -0.63036E-01 -0.52476E-01 -0.35259E-01 -0.16345E-01
  0.26418E-03  0.13032E-01  0.21946E-01  0.26553E-01  0.25147E-01  0.15886E-01
 -0.13726E-02 -0.24797E-01 -0.52966E-01 -0.87959E-01 -0.13498E+00 -0.19641E+00
 -0.26436E+00 -0.31962E+00 -0.34111E+00 -0.31962E+00 -0.26436E+00 -0.19641E+00
  0.35813E-02  0.39391E-02  0.36905E-02  0.26794E-02  0.65668E-03 -0.25225E-02
 -0.68109E-02 -0.12199E-01 -0.19163E-01 -0.28745E-01 -0.41644E-01 -0.56553E-01
 -0.69343E-01 -0.74569E-01 -0.68809E-01 -0.53166E-01 -0.32643E-01 -0.12940E-01
  0.25236E-02  0.13129E-01  0.19441E-01  0.21432E-01  0.18151E-01  0.88113E-02
 -0.61950E-02 -0.26119E-01 -0.52482E-01 -0.90496E-01 -0.14552E+00 -0.21510E+00
 -0.28361E+00 -0.32702E+00 -0.32702E+00 -0.28361E+00 -0.21510E+00 -0.14552E+00
  0.28309E-02  0.28110E-02  0.21961E-02  0.88695E-03 -0.12719E-02 -0.43991E-02
 -0.86019E-02 -0.14248E-01 -0.22263E-01 -0.33764E-01 -0.48647E-01 -0.64043E-01
 -0.74569E-01 -0.75107E-01 -0.64251E-01 -0.45406E-01 -0.24538E-01 -0.66247E-02
  0.63017E-02  0.14590E-01  0.19179E-01  0.20324E-01  0.17612E-01  0.10781E-01
  0.15150E-04 -0.15403E-01 -0.39143E-01 -0.77187E-01 -0.13218E+00 -0.19616E+00
 -0.24947E+00 -0.27041E+00 -0.24947E+00 -0.19616E+00 -0.13218E+00 -0.77187E-01
  0.22818E-02  0.20668E-02  0.13441E-02  0.39197E-04 -0.20014E-02 -0.49595E-02
 -0.90933E-02 -0.14995E-01 -0.23688E-01 -0.35857E-01 -0.50293E-01 -0.63036E-01
 -0.68809E-01 -0.64251E-01 -0.50302E-01 -0.31572E-01 -0.13349E-01  0.11252E-02
  0.11267E-01  0.18029E-01  0.22451E-01  0.24877E-01  0.25107E-01  0.22996E-01
  0.18410E-01  0.98343E-02 -0.68264E-02 -0.36234E-01 -0.77878E-01 -0.12150E+00
 -0.15001E+00 -0.15001E+00 -0.12150E+00 -0.77878E-01 -0.36234E-01 -0.68264E-02
  0.20773E-02  0.18589E-02  0.12519E-02  0.15325E-03 -0.16387E-02 -0.43382E-02
 -0.82319E-02 -0.13918E-01 -0.22191E-01 -0.33055E-01 -0.44481E-01 -0.52476E-01
 -0.53166E-01 -0.45406E-01 -0.31572E-01 -0.15880E-01 -0.18408E-02  0.91216E-02
  0.17413E-01  0.24196E-01  0.30393E-01  0.36250E-01  0.41643E-01  0.46677E-01
  0.51439E-01  0.54621E-01  0.52800E-01  0.42679E-01  0.25410E-01  0.84112E-02
  0.12706E-02  0.84112E-02  0.25410E-01  0.42679E-01  0.52800E-01  0.54621E-01
  0.23185E-02  0.22759E-02  0.19457E-02  0.11682E-02 -0.26109E-03 -0.24858E-02
 -0.57109E-02 -0.10403E-01 -0.16985E-01 -0.24908E-01 -0.32009E-01 -0.35259E-01
 -0.32643E-01 -0.24538E-01 -0.13349E-01 -0.18408E-02  0.83474E-02  0.17095E-01
  0.25289E-01  0.34025E-01  0.43997E-01  0.55442E-01  0.68685E-01  0.84557E-01
  0.10373E+00  0.12519E+00  0.14571E+00  0.16144E+00  0.17062E+00  0.17431E+00
  0.17431E+00  0.17062E+00  0.16144E+00  0.14571E+00  0.12519E+00  0.10373E+00
  0.30758E-02  0.33483E-02  0.33910E-02  0.30388E-02  0.21809E-02  0.78924E-03
 -0.12682E-02 -0.43071E-02 -0.84312E-02 -0.12911E-01 -0.16114E-01 -0.16345E-01
 -0.12940E-01 -0.66247E-02  0.11252E-02  0.91216E-02  0.17095E-01  0.25653E-01
  0.35798E-01  0.48446E-01  0.64302E-01  0.84185E-01  0.10938E+00  0.14141E+00
  0.18096E+00  0.22653E+00  0.27365E+00  0.31547E+00  0.34448E+00  0.35489E+00
  0.34448E+00  0.31547E+00  0.27365E+00  0.22653E+00  0.18096E+00  0.14141E+00
  0.43731E-02  0.50457E-02  0.55477E-02  0.58054E-02  0.58259E-02  0.56123E-02
  0.50375E-02  0.39145E-02  0.22841E-02  0.62431E-03 -0.28078E-03  0.26418E-03
  0.25236E-02  0.63017E-02  0.11267E-01  0.17413E-01  0.25289E-01  0.35798E-01
  0.49878E-01  0.68537E-01  0.93224E-01  0.12593E+00  0.16873E+00  0.22313E+00
  0.28934E+00  0.36485E+00  0.44215E+00  0.50790E+00  0.54628E+00  0.54628E+00
  0.50790E+00  0.44215E+00  0.36485E+00  0.28934E+00  0.22313E+00  0.16873E+00
  0.61830E-02  0.73259E-02  0.84406E-02  0.95728E-02  0.10751E-01  0.11918E-01
  0.12965E-01  0.13778E-01  0.14220E-01  0.14149E-01  0.13609E-01  0.13032E-01
  0.13129E-01  0.14590E-01  0.18029E-01  0.24196E-01  0.34025E-01  0.48446E-01
  0.68537E-01  0.96160E-01  0.13415E+00  0.18551E+00  0.25263E+00  0.33749E+00
  0.44096E+00  0.55857E+00  0.67476E+00  0.76288E+00  0.79608E+00  0.76288E+00
  0.67476E+00  0.55857E+00  0.44096E+00  0.33749E+00  0.25263E+00  0.18551E+00
  0.84627E-02  0.10193E-01  0.12136E-01  0.14378E-01  0.16895E-01  0.19643E-01
  0.22574E-01  0.25371E-01  0.27218E-01  0.27185E-01  0.25091E-01  0.21946E-01
  0.19441E-01  0.19179E-01  0.22451E-01  0.30393E-01  0.43997E-01  0.64302E-01
  0.93224E-01  0.13415E+00  0.19119E+00  0.26813E+00  0.36929E+00  0.50038E+00
  0.66373E+00  0.84666E+00  0.10135E+01  0.11152E+01  0.11152E+01  0.10135E+01
  0.84666E+00  0.66373E+00  0.50038E+00  0.36929E+00  0.26813E+00  0.19119E+00
  0.11187E-01  0.13664E-01  0.16614E-01  0.20113E-01  0.24208E-01  0.29000E-01
  0.34276E-01  0.38889E-01  0.40902E-01  0.38895E-01  0.33337E-01  0.26553E-01
  0.21432E-01  0.20324E-01  0.24877E-01  0.36250E-01  0.55442E-01  0.84185E-01
  0.12593E+00  0.18551E+00  0.26813E+00  0.38057E+00  0.53418E+00  0.74147E+00
  0.99998E+00  0.12726E+01  0.14875E+01  0.15698E+01  0.14875E+01  0.12726E+01
  0.99998E+00  0.74147E+00  0.53418E+00  0.38057E+00  0.26813E+00  0.18551E+00
  0.14330E-01  0.17664E-01  0.21692E-01  0.26608E-01  0.32722E-01  0.40119E-01
  0.47738E-01  0.52957E-01  0.52855E-01  0.46469E-01  0.35892E-01  0.25147E-01
  0.18151E-01  0.17612E-01  0.25107E-01  0.41643E-01  0.68685E-01  0.10938E+00
  0.16873E+00  0.25263E+00  0.36929E+00  0.53418E+00  0.77060E+00  0.10930E+01
  0.14762E+01  0.18371E+01  0.20602E+01  0.20602E+01  0.18371E+01  0.14762E+01
  0.10930E+01  0.77060E+00  0.53418E+00  0.36929E+00  0.25263E+00  0.16873E+00
  0.17792E-01  0.21954E-01  0.27050E-01  0.33581E-01  0.42025E-01  0.51797E-01
  0.60248E-01  0.63314E-01  0.58128E-01  0.45441E-01  0.29538E-01  0.15886E-01
  0.88113E-02  0.10781E-01  0.22996E-01  0.46677E-01  0.84557E-01  0.14141E+00
  0.22313E+00  0.33749E+00  0.50038E+00  0.74147E+00  0.10930E+01  0.15542E+01
  0.20532E+01  0.24507E+01  0.26036E+01  0.24507E+01  0.20532E+01  0.15542E+01
  0.10930E+01  0.74147E+00  0.50038E+00  0.33749E+00  0.22313E+00  0.14141E+00
  0.21325E-01  0.26111E-01  0.32136E-01  0.40162E-01  0.50269E-01  0.60469E-01
  0.66486E-01  0.63909E-01  0.51436E-01  0.32328E-01  0.12739E-01 -0.13726E-02
 -0.61950E-02  0.15152E-04  0.18410E-01  0.51439E-01  0.10373E+00  0.18096E+00
  0.28934E+00  0.44096E+00  0.66373E+00  0.99998E+00  0.14762E+01  0.20532E+01
  0.26009E+01  0.29403E+01  0.29403E+01  0.26009E+01  0.20532E+01  0.14762E+01
  0.99998E+00  0.66373E+00  0.44096E+00  0.28934E+00  0.18096E+00  0.10373E+00
  0.24435E-01  0.29426E-01  0.35874E-01  0.44370E-01  0.53939E-01  0.61097E-01
  0.60978E-01  0.50453E-01  0.30800E-01  0.74767E-02 -0.12755E-01 -0.24797E-01
 -0.26119E-01 -0.15403E-01  0.98343E-02  0.54621E-01  0.12519E+00  0.22653E+00
  0.36485E+00  0.55857E+00  0.84666E+00  0.12726E+01  0.18371E+01  0.24507E+01
  0.29403E+01  0.31286E+01  0.29403E+01  0.24507E+01  0.18371E+01  0.12726E+01
  0.84666E+00  0.55857E+00  0.36485E+00  0.22653E+00  0.12519E+00  0.54621E-01
  0.26331E-01  0.30829E-01  0.36585E-01  0.43494E-01  0.49393E-01  0.50150E-01
  0.41847E-01  0.23743E-01 -0.52822E-03 -0.24732E-01 -0.43241E-01 -0.52966E-01
 -0.52482E-01 -0.39143E-01 -0.68264E-02  0.52800E-01  0.14571E+00  0.27365E+00
  0.44215E+00  0.67476E+00  0.10135E+01  0.14875E+01  0.20602E+01  0.26036E+01
  0.29403E+01  0.29403E+01  0.26036E+01  0.20602E+01  0.14875E+01  0.10135E+01
  0.67476E+00  0.44215E+00  0.27365E+00  0.14571E+00  0.52800E-01 -0.68265E-02
  0.26042E-01  0.29115E-01  0.32640E-01  0.35662E-01  0.35428E-01  0.28406E-01
  0.12642E-01 -0.10344E-01 -0.35944E-01 -0.59073E-01 -0.76740E-01 -0.87959E-01
 -0.90496E-01 -0.77187E-01 -0.36234E-01  0.42679E-01  0.16144E+00  0.31547E+00
  0.50790E+00  0.76288E+00  0.11152E+01  0.15698E+01  0.20602E+01  0.24507E+01
  0.26009E+01  0.24507E+01  0.20602E+01  0.15698E+01  0.11152E+01  0.76288E+00
  0.50790E+00  0.31547E+00  0.16144E+00  0.42679E-01 -0.36234E-01 -0.77187E-01
  0.22822E-01  0.23592E-01  0.23606E-01  0.21418E-01  0.14560E-01  0.88920E-03
 -0.19670E-01 -0.44517E-01 -0.69890E-01 -0.93501E-01 -0.11541E+00 -0.13498E+00
 -0.14552E+00 -0.13218E+00 -0.77878E-01  0.25410E-01  0.17062E+00  0.34448E+00
  0.54628E+00  0.79608E+00  0.11152E+01  0.14875E+01  0.18371E+01  0.20532E+01
  0.20532E+01  0.18371E+01  0.14875E+01  0.11152E+01  0.79608E+00  0.54628E+00
  0.34448E+00  0.17062E+00  0.25410E-01 -0.77878E-01 -0.13218E+00 -0.14552E+00
  0.16648E-01  0.14688E-01  0.10838E-01  0.37051E-02 -0.83661E-02 -0.26214E-01
 -0.48940E-01 -0.74341E-01 -0.10099E+00 -0.12999E+00 -0.16308E+00 -0.19641E+00
 -0.21510E+00 -0.19616E+00 -0.12150E+00  0.84112E-02  0.17431E+00  0.35489E+00
  0.54628E+00  0.76288E+00  0.10135E+01  0.12726E+01  0.14762E+01  0.15542E+01
  0.14762E+01  0.12726E+01  0.10135E+01  0.76288E+00  0.54628E+00  0.35489E+00
  0.17431E+00  0.84111E-02 -0.12150E+00 -0.19616E+00 -0.21510E+00 -0.19641E+00
  0.83881E-02  0.38935E-02 -0.31896E-02 -0.13876E-01 -0.29080E-01 -0.48972E-01
 -0.72717E-01 -0.99597E-01 -0.13107E+00 -0.17065E+00 -0.21868E+00 -0.26436E+00
 -0.28361E+00 -0.24947E+00 -0.15001E+00  0.12706E-02  0.17431E+00  0.34448E+00
  0.50790E+00  0.67476E+00  0.84666E+00  0.99998E+00  0.10930E+01  0.10930E+01
  0.99998E+00  0.84666E+00  0.67476E+00  0.50790E+00  0.34448E+00  0.17431E+00
  0.12705E-02 -0.15001E+00 -0.24947E+00 -0.28361E+00 -0.26436E+00 -0.21868E+00
 -0.59497E-03 -0.70155E-02 -0.16255E-01 -0.28973E-01 -0.45751E-01 -0.66725E-01
 -0.91765E-01 -0.12197E+00 -0.16099E+00 -0.21232E+00 -0.27154E+00 -0.31962E+00
 -0.32702E+00 -0.27041E+00 -0.15001E+00  0.84112E-02  0.17062E+00  0.31547E+00
  0.44215E+00  0.55857E+00  0.66373E+00  0.74147E+00  0.77060E+00  0.74147E+00
  0.66373E+00  0.55857E+00  0.44215E+00  0.31547E+00  0.17062E+00  0.84111E-02
 -0.15001E+00 -0.27041E+00 -0.32702E+00 -0.31962E+00 -0.27154E+00 -0.21232E+00
 -0.90782E-02 -0.16777E-01 -0.27237E-01 -0.40982E-01 -0.58610E-01 -0.80528E-01
 -0.10741E+00 -0.14166E+00 -0.18734E+00 -0.24518E+00 -0.30456E+00 -0.34111E+00
 -0.32702E+00 -0.24947E+00 -0.12150E+00  0.25410E-01  0.16144E+00  0.27365E+00
  0.36485E+00  0.44096E+00  0.50038E+00  0.53418E+00  0.53418E+00  0.50038E+00
  0.44096E+00  0.36485E+00  0.27365E+00  0.16144E+00  0.25410E-01 -0.12150E+00
 -0.24947E+00 -0.32702E+00 -0.34111E+00 -0.30456E+00 -0.24518E+00 -0.18734E+00
 -0.16352E-01 -0.24841E-01 -0.35930E-01 -0.50195E-01 -0.68375E-01 -0.91096E-01
 -0.11945E+00 -0.15602E+00 -0.20329E+00 -0.25782E+00 -0.30456E+00 -0.31962E+00
 -0.28361E+00 -0.19616E+00 -0.77878E-01  0.42679E-01  0.14571E+00  0.22653E+00
  0.28934E+00  0.33749E+00  0.36929E+00  0.38057E+00  0.36929E+00  0.33749E+00
  0.28934E+00  0.22653E+00  0.14571E+00  0.42679E-01 -0.77878E-01 -0.19616E+00
 -0.28361E+00 -0.31962E+00 -0.30456E+00 -0.25782E+00 -0.20329E+00 -0.15602E+00
 -0.22147E-01 -0.31059E-01 -0.42398E-01 -0.56858E-01 -0.75218E-01 -0.98046E-01
 -0.12624E+00 -0.16138E+00 -0.20329E+00 -0.24518E+00 -0.27154E+00 -0.26436E+00
 -0.21510E+00 -0.13218E+00 -0.36234E-01  0.52800E-01  0.12519E+00  0.18096E+00
  0.22313E+00  0.25263E+00  0.26813E+00  0.26813E+00  0.25263E+00  0.22313E+00
  0.18096E+00  0.12519E+00  0.52800E-01 -0.36234E-01 -0.13218E+00 -0.21510E+00
 -0.26436E+00 -0.27154E+00 -0.24518E+00 -0.20329E+00 -0.16138E+00 -0.12624E+00
 -0.26393E-01 -0.35396E-01 -0.46667E-01 -0.60933E-01 -0.78806E-01 -0.10051E+00
 -0.12624E+00 -0.15602E+00 -0.18734E+00 -0.21232E+00 -0.21868E+00 -0.19641E+00
 -0.14552E+00 -0.77187E-01 -0.68264E-02  0.54621E-01  0.10373E+00  0.14141E+00
  0.16873E+00  0.18551E+00  0.19119E+00  0.18551E+00  0.16873E+00  0.14141E+00
  0.10373E+00  0.54621E-01 -0.68265E-02 -0.77187E-01 -0.14552E+00 -0.19641E+00
 -0.21868E+00 -0.21232E+00 -0.18734E+00 -0.15602E+00 -0.12624E+00 -0.10051E+00
  0.16788E-08  0.17653E-08  0.17476E-08  0.16219E-08  0.14001E-08  0.11317E-08
  0.87708E-09  0.64107E-09  0.37551E-09  0.82307E-10 -0.11821E-09 -0.79565E-10
  0.20641E-09  0.57860E-09  0.85400E-09  0.97625E-09  0.10066E-08  0.10087E-08
  0.98454E-09  0.90737E-09  0.77178E-09  0.59771E-09  0.41386E-09  0.25427E-09
  0.15231E-09  0.11615E-09  0.11573E-09  0.11149E-09  0.96914E-10  0.10098E-09
  0.14531E-09  0.20732E-09  0.23133E-09  0.17355E-09  0.34044E-10 -0.15001E-09
  0.17657E-08  0.18081E-08  0.17422E-08  0.15607E-08  0.12886E-08  0.99212E-09
  0.71905E-09  0.44842E-09  0.15001E-09 -0.11052E-09 -0.18466E-09  0.81356E-11
  0.37283E-09  0.71643E-09  0.91887E-09  0.99853E-09  0.10268E-08  0.10282E-08
  0.97894E-09  0.86384E-09  0.69956E-09  0.51345E-09  0.33144E-09  0.18703E-09
  0.11413E-09  0.11506E-09  0.14853E-09  0.16655E-09  0.16182E-09  0.16626E-09
  0.20056E-09  0.23621E-09  0.21675E-09  0.11252E-09 -0.54620E-10 -0.23806E-09
  0.17465E-08  0.17411E-08  0.16204E-08  0.13933E-08  0.11131E-08  0.83761E-09
  0.56279E-09  0.24354E-09 -0.94200E-10 -0.30415E-09 -0.23648E-09  0.97579E-10
  0.51537E-09  0.82433E-09  0.96789E-09  0.10089E-08  0.10123E-08  0.98189E-09
  0.89443E-09  0.74968E-09  0.57092E-09  0.38390E-09  0.21784E-09  0.11265E-09
  0.94889E-10  0.14040E-09  0.18231E-09  0.17349E-09  0.13423E-09  0.12227E-09
  0.15658E-09  0.18762E-09  0.14960E-09  0.27723E-10 -0.13839E-09 -0.30347E-09
  0.16173E-08  0.15578E-08  0.13920E-08  0.11643E-08  0.93080E-09  0.68920E-09
  0.37569E-09 -0.25453E-10 -0.38275E-09 -0.48539E-09 -0.23888E-09  0.22700E-09
  0.66515E-09  0.91360E-09  0.98136E-09  0.96420E-09  0.92306E-09  0.85410E-09
  0.73754E-09  0.57677E-09  0.39412E-09  0.21997E-09  0.95682E-10  0.60921E-10
  0.11150E-09  0.17800E-09  0.17691E-09  0.96073E-10  0.11886E-10  0.48566E-11
  0.67520E-10  0.11394E-09  0.73610E-10 -0.47489E-10 -0.19790E-09 -0.33946E-09
  0.13921E-08  0.12844E-08  0.11100E-08  0.92764E-09  0.74201E-09  0.47675E-09
  0.70888E-10 -0.38697E-09 -0.66410E-09 -0.56826E-09 -0.13179E-09  0.40352E-09
  0.78476E-09  0.92445E-09  0.90050E-09  0.82698E-09  0.75165E-09  0.65909E-09
  0.52751E-09  0.36090E-09  0.18588E-09  0.45036E-10 -0.12443E-10  0.32808E-10
  0.12804E-09  0.16792E-09  0.89555E-10 -0.53061E-10 -0.13608E-09 -0.95556E-10
  0.81012E-11  0.62221E-10  0.14584E-10 -0.10234E-09 -0.23362E-09 -0.34959E-09
  0.11200E-08  0.98562E-09  0.83028E-09  0.67878E-09  0.46727E-09  0.10922E-09
 -0.36258E-09 -0.74605E-09 -0.80556E-09 -0.47707E-09  0.64430E-10  0.54267E-09
  0.78366E-09  0.80013E-09  0.71274E-09  0.61932E-09  0.53720E-09  0.43737E-09
  0.29988E-09  0.13488E-09 -0.22326E-10 -0.12011E-09 -0.11528E-09 -0.21169E-10
  0.71967E-10  0.61313E-10 -0.62130E-10 -0.19050E-09 -0.20639E-09 -0.10519E-09
  0.83879E-11  0.35032E-10 -0.36015E-10 -0.15243E-09 -0.26593E-09 -0.35420E-09
  0.85143E-09  0.70146E-09  0.54405E-09  0.35087E-09  0.44151E-10 -0.37984E-09
 -0.77331E-09 -0.91974E-09 -0.71217E-09 -0.25083E-09  0.23155E-09  0.53831E-09
  0.62149E-09  0.56312E-09  0.47200E-09  0.39870E-09  0.32881E-09  0.23002E-09
  0.91453E-10 -0.69167E-10 -0.21132E-09 -0.28240E-09 -0.25154E-09 -0.15370E-09
 -0.81525E-10 -0.10168E-09 -0.17917E-09 -0.21119E-09 -0.14276E-09 -0.27083E-10
  0.36720E-10  0.22735E-11 -0.10179E-09 -0.22172E-09 -0.31968E-09 -0.37691E-09
  0.57691E-09  0.40305E-09  0.20219E-09 -0.72574E-10 -0.43428E-09 -0.77717E-09
 -0.92694E-09 -0.78728E-09 -0.42666E-09 -0.23578E-10  0.26125E-09  0.37098E-09
  0.35030E-09  0.28386E-09  0.23006E-09  0.19299E-09  0.14221E-09  0.50857E-10
 -0.84245E-10 -0.24267E-09 -0.38306E-09 -0.45398E-09 -0.42908E-09 -0.33964E-09
 -0.25255E-09 -0.20257E-09 -0.16140E-09 -0.87602E-10  0.77874E-11  0.66062E-10
  0.43029E-10 -0.54084E-10 -0.18525E-09 -0.30746E-09 -0.38536E-09 -0.40208E-09
  0.24996E-09  0.64320E-10 -0.16462E-09 -0.45154E-09 -0.72069E-09 -0.82888E-09
 -0.69878E-09 -0.40237E-09 -0.98624E-10  0.91918E-10  0.14596E-09  0.10882E-09
  0.43386E-10 -0.25496E-11 -0.14059E-10 -0.11990E-10 -0.33331E-10 -0.10382E-09
 -0.22592E-09 -0.37947E-09 -0.52221E-09 -0.60036E-09 -0.57985E-09 -0.47194E-09
 -0.31954E-09 -0.16120E-09 -0.18617E-10  0.87743E-10  0.13349E-09  0.10749E-09
  0.20704E-10 -0.10541E-09 -0.24419E-09 -0.35534E-09 -0.39643E-09 -0.36137E-09
 -0.10127E-09 -0.23103E-09 -0.39512E-09 -0.55870E-09 -0.60786E-09 -0.46457E-09
 -0.19418E-09  0.42067E-10  0.13078E-09  0.76899E-10 -0.47477E-10 -0.17633E-09
 -0.26800E-09 -0.29739E-09 -0.26572E-09 -0.20943E-09 -0.17937E-09 -0.20892E-09
 -0.30227E-09 -0.43810E-09 -0.57183E-09 -0.64438E-09 -0.60939E-09 -0.46224E-09
 -0.24537E-09 -0.28176E-10  0.12468E-09  0.18363E-09  0.16465E-09  0.10398E-09
  0.19200E-10 -0.92184E-10 -0.21252E-09 -0.28761E-09 -0.27486E-09 -0.19680E-09
 -0.32668E-09 -0.31715E-09 -0.32584E-09 -0.29078E-09 -0.13197E-09  0.12154E-09
  0.32538E-09  0.35505E-09  0.21117E-09 -0.17520E-10 -0.24998E-09 -0.44154E-09
 -0.55425E-09 -0.55565E-09 -0.45608E-09 -0.31849E-09 -0.21685E-09 -0.19293E-09
 -0.24950E-09 -0.36163E-09 -0.48085E-09 -0.54253E-09 -0.49414E-09 -0.33235E-09
 -0.11621E-09  0.64412E-10  0.15019E-09  0.15292E-09  0.13008E-09  0.11483E-09
  0.85488E-10  0.16599E-10 -0.59715E-10 -0.76935E-10 -0.17811E-10  0.57892E-10
 -0.27451E-09 -0.11211E-09  0.30634E-10  0.21062E-09  0.44034E-09  0.62355E-09
  0.63958E-09  0.46606E-09  0.18280E-09 -0.12291E-09 -0.40660E-09 -0.62897E-09
 -0.72685E-09 -0.65816E-09 -0.45857E-09 -0.22729E-09 -0.58978E-10  0.23088E-11
 -0.39505E-10 -0.15023E-09 -0.27323E-09 -0.34138E-09 -0.30927E-09 -0.18878E-09
 -0.49086E-10  0.35710E-10  0.52103E-10  0.54782E-10  0.97590E-10  0.16599E-09
  0.20051E-09  0.18386E-09  0.17002E-09  0.20936E-09  0.27317E-09  0.28300E-09
  0.43590E-10  0.27634E-09  0.47621E-09  0.67565E-09  0.83423E-09  0.85799E-09
  0.70602E-09  0.43435E-09  0.12613E-09 -0.17903E-09 -0.46067E-09 -0.65776E-09
 -0.68333E-09 -0.50752E-09 -0.20351E-09  0.97948E-10  0.29082E-09  0.33698E-09
  0.25770E-09  0.10762E-09 -0.45828E-10 -0.14298E-09 -0.15885E-09 -0.12013E-09
 -0.84500E-10 -0.84268E-10 -0.88593E-10 -0.37321E-10  0.82304E-10  0.21270E-09
  0.29420E-09  0.33556E-09  0.38675E-09  0.45158E-09  0.46605E-09  0.37255E-09
  0.44657E-09  0.64289E-09  0.80405E-09  0.93111E-09  0.96463E-09  0.85518E-09
  0.63078E-09  0.36630E-09  0.10522E-09 -0.15161E-09 -0.38096E-09 -0.49953E-09
 -0.41941E-09 -0.13818E-09  0.23671E-09  0.55273E-09  0.70246E-09  0.66836E-09
  0.50568E-09  0.29550E-09  0.10608E-09 -0.25088E-10 -0.96683E-10 -0.13755E-09
 -0.17900E-09 -0.21671E-09 -0.20605E-09 -0.11094E-09  0.46457E-10  0.20392E-09
  0.32638E-09  0.42898E-09  0.52275E-09  0.56607E-09  0.49958E-09  0.31707E-09
  0.74791E-09  0.86412E-09  0.95550E-09  0.99380E-09  0.92816E-09  0.75634E-09
  0.53650E-09  0.32587E-09  0.13210E-09 -0.57338E-10 -0.20923E-09 -0.23394E-09
 -0.57171E-10  0.29502E-09  0.68600E-09  0.94990E-09  0.99565E-09  0.84801E-09
  0.60332E-09  0.35419E-09  0.14889E-09 -0.32632E-11 -0.11338E-09 -0.20024E-09
 -0.27347E-09 -0.31571E-09 -0.29102E-09 -0.18301E-09 -0.17547E-10  0.16205E-09
  0.33118E-09  0.47748E-09  0.56739E-09  0.55032E-09  0.40871E-09  0.18436E-09
  0.89614E-09  0.95974E-09  0.99949E-09  0.97216E-09  0.85038E-09  0.66249E-09
  0.46948E-09  0.30823E-09  0.16953E-09  0.39373E-10 -0.43790E-10  0.81695E-11
  0.25247E-09  0.63137E-09  0.98077E-09  0.11399E-08  0.10625E-08  0.82615E-09
  0.54819E-09  0.30204E-09  0.10459E-09 -0.50610E-10 -0.17140E-09 -0.26645E-09
 -0.33936E-09 -0.37491E-09 -0.34360E-09 -0.22901E-09 -0.46153E-10  0.16779E-09
  0.36921E-09  0.51056E-09  0.54550E-09  0.45452E-09  0.26652E-09  0.40292E-10
  0.95198E-09  0.10009E-08  0.10058E-08  0.93163E-09  0.77721E-09  0.58447E-09
  0.40895E-09  0.27573E-09  0.16852E-09  0.74719E-10  0.39523E-10  0.14871E-09
  0.43266E-09  0.79346E-09  0.10538E-08  0.10918E-08  0.92466E-09  0.66317E-09
  0.40651E-09  0.19038E-09  0.12575E-10 -0.12931E-09 -0.23514E-09 -0.31293E-09
 -0.36861E-09 -0.38620E-09 -0.33221E-09 -0.18648E-09  0.32140E-10  0.26810E-09
  0.45246E-09  0.53015E-09  0.48125E-09  0.32825E-09  0.12100E-09 -0.93900E-10
  0.97379E-09  0.10113E-08  0.97977E-09  0.86752E-09  0.69048E-09  0.49291E-09
  0.32453E-09  0.20218E-09  0.10559E-09  0.30555E-10  0.34094E-10  0.18986E-09
  0.48485E-09  0.78622E-09  0.93708E-09  0.88175E-09  0.68681E-09  0.45480E-09
  0.24265E-09  0.59519E-10 -0.93111E-10 -0.20666E-09 -0.28094E-09 -0.32838E-09
 -0.35218E-09 -0.32885E-09 -0.22374E-09 -0.28992E-10  0.21297E-09  0.42424E-09
  0.53386E-09  0.51431E-09  0.38620E-09  0.19490E-09 -0.16818E-10 -0.22082E-09
  0.96161E-09  0.96932E-09  0.90041E-09  0.76091E-09  0.57068E-09  0.37183E-09
  0.20803E-09  0.87134E-10 -0.99825E-11 -0.70265E-10 -0.28465E-10  0.15982E-09
  0.43465E-09  0.65528E-09  0.71562E-09  0.61994E-09  0.44547E-09  0.25895E-09
  0.84937E-10 -0.68488E-10 -0.18752E-09 -0.26213E-09 -0.29863E-09 -0.30836E-09
 -0.28519E-09 -0.20203E-09 -0.36913E-10  0.19175E-09  0.41620E-09  0.55374E-09
  0.55909E-09  0.44665E-09  0.26509E-09  0.58245E-10 -0.14775E-09 -0.33308E-09
  0.89179E-09  0.86320E-09  0.76820E-09  0.61478E-09  0.42148E-09  0.22982E-09
  0.74470E-10 -0.47918E-10 -0.14927E-09 -0.19584E-09 -0.12377E-09  0.75237E-10
  0.31133E-09  0.46314E-09  0.47610E-09  0.38170E-09  0.23913E-09  0.85928E-10
 -0.59391E-10 -0.17858E-09 -0.25584E-09 -0.28962E-09 -0.28937E-09 -0.25891E-09
 -0.18530E-09 -0.47018E-10  0.15845E-09  0.38754E-09  0.55816E-09  0.60042E-09
  0.50679E-09  0.32784E-09  0.12207E-09 -0.79348E-10 -0.26246E-09 -0.40878E-09
  0.76112E-09  0.70841E-09  0.60182E-09  0.44602E-09  0.26491E-09  0.98601E-10
 -0.37547E-10 -0.16188E-09 -0.27342E-09 -0.31583E-09 -0.22975E-09 -0.35526E-10
  0.16562E-09  0.27668E-09  0.27263E-09  0.18722E-09  0.63515E-10 -0.67597E-10
 -0.18147E-09 -0.25886E-09 -0.29369E-09 -0.29216E-09 -0.26150E-09 -0.19959E-09
 -0.91708E-10  0.78180E-10  0.29777E-09  0.50358E-09  0.60609E-09  0.55633E-09
  0.38554E-09  0.17060E-09 -0.31126E-10 -0.20277E-09 -0.33951E-09 -0.42769E-09
  0.58816E-09  0.52671E-09  0.42037E-09  0.28184E-09  0.14494E-09  0.33279E-10
 -0.73680E-10 -0.20765E-09 -0.34190E-09 -0.39076E-09 -0.29870E-09 -0.11094E-09
  0.62719E-10  0.14107E-09  0.11597E-09  0.24823E-10 -0.90238E-10 -0.19653E-09
 -0.27150E-09 -0.30604E-09 -0.30431E-09 -0.27601E-09 -0.22762E-09 -0.15393E-09
 -0.34157E-10  0.14940E-09  0.37036E-09  0.54272E-09  0.57336E-09  0.44235E-09
  0.22021E-09  0.10425E-11 -0.16736E-09 -0.28500E-09 -0.35869E-09 -0.38390E-09
  0.39849E-09  0.33995E-09  0.25368E-09  0.17050E-09  0.11936E-09  0.80788E-10
 -0.75137E-11 -0.16936E-09 -0.33073E-09 -0.37679E-09 -0.27078E-09 -0.93822E-10
  0.34841E-10  0.55710E-10 -0.12607E-10 -0.11955E-09 -0.22302E-09 -0.29789E-09
 -0.33249E-09 -0.32754E-09 -0.29400E-09 -0.24702E-09 -0.19455E-09 -0.12261E-09
  0.32410E-11  0.19902E-09  0.41347E-09  0.53771E-09  0.48987E-09  0.29178E-09
  0.48885E-10 -0.14228E-09 -0.25406E-09 -0.30637E-09 -0.31752E-09 -0.28832E-09
  0.22357E-09  0.18420E-09  0.15052E-09  0.16036E-09  0.20754E-09  0.21693E-09
  0.11101E-09 -0.86818E-10 -0.24675E-09 -0.25495E-09 -0.12833E-09  0.94919E-11
  0.51313E-10 -0.15231E-10 -0.13537E-09 -0.25338E-09 -0.34018E-09 -0.38310E-09
 -0.37719E-09 -0.32971E-09 -0.26224E-09 -0.19866E-09 -0.14264E-09 -0.64244E-10
  0.77861E-10  0.28059E-09  0.46295E-09  0.51240E-09  0.38274E-09  0.14130E-09
 -0.89287E-10 -0.22914E-09 -0.27765E-09 -0.27213E-09 -0.23564E-09 -0.16603E-09
  0.97692E-10  0.10079E-09  0.14363E-09  0.24250E-09  0.33939E-09  0.33081E-09
  0.17849E-09 -0.21627E-10 -0.11748E-09 -0.54402E-10  0.72956E-10  0.12573E-09
  0.51016E-10 -0.10175E-09 -0.25879E-09 -0.38000E-09 -0.45089E-09 -0.45921E-09
 -0.40101E-09 -0.29752E-09 -0.18823E-09 -0.10079E-09 -0.26531E-10  0.73283E-10
  0.22627E-09  0.40159E-09  0.50854E-09  0.46266E-09  0.26558E-09  0.14222E-10
 -0.17568E-09 -0.25374E-09 -0.24671E-09 -0.20330E-09 -0.14220E-09 -0.51366E-10
  0.36725E-10  0.98084E-10  0.20426E-09  0.33131E-09  0.39144E-09  0.31226E-09
  0.13633E-09  0.74239E-11  0.29800E-10  0.15595E-09  0.23817E-09  0.17933E-09
  0.57656E-11 -0.19615E-09 -0.36833E-09 -0.49033E-09 -0.54112E-09 -0.49643E-09
 -0.36395E-09 -0.19348E-09 -0.40243E-10  0.75365E-10  0.17173E-09  0.27789E-09