       #
       # Generated by the Wannier90 code http://www.wannier.org
       # On 16May2012 at 16:37:13 
       #
CRYSTAL
PRIMVEC
   1.2305000   2.1312885   0.0000000
  -1.2305000   2.1312885   0.0000000
   0.0000000   0.0000000   7.1042951
CONVVEC
   1.2305000   2.1312885   0.0000000
  -1.2305000   2.1312885   0.0000000
   0.0000000   0.0000000   7.1042951
PRIMCOORD
     2  1
C       0.0000000   1.4208590   0.0000000
C       0.0000000   2.8417180   0.0000000


BEGIN_BLOCK_DATAGRID_3D
3D_field
BEGIN_DATAGRID_3D_UNKNOWN
    36    36   108
    0.000000   -4.499387   -7.235856
   2.3926389   4.1441721   0.0000000
  -2.3926389   4.1441721   0.0000000
   0.0000000   0.0000000  14.0770291
 -0.11592E-02 -0.15049E-02 -0.19086E-02 -0.22704E-02 -0.25172E-02 -0.26581E-02
 -0.26847E-02 -0.24876E-02 -0.18949E-02 -0.78821E-03  0.73756E-03  0.22471E-02
  0.30886E-02  0.28096E-02  0.14390E-02 -0.76732E-03 -0.37971E-02 -0.78976E-02
 -0.13175E-01 -0.19512E-01 -0.26999E-01 -0.36156E-01 -0.47430E-01 -0.60535E-01
 -0.74262E-01 -0.86447E-01 -0.93774E-01 -0.92207E-01 -0.79013E-01 -0.55258E-01
 -0.26209E-01  0.13054E-02  0.22387E-01  0.35505E-01  0.41490E-01  0.41913E-01
 -0.15049E-02 -0.19129E-02 -0.22787E-02 -0.25340E-02 -0.27149E-02 -0.28327E-02
 -0.27670E-02 -0.23455E-02 -0.14810E-02 -0.24570E-03  0.10709E-02  0.19775E-02
  0.20215E-02  0.10764E-02 -0.73519E-03 -0.34129E-02 -0.71456E-02 -0.11959E-01
 -0.17638E-01 -0.24248E-01 -0.32436E-01 -0.42786E-01 -0.54973E-01 -0.67752E-01
 -0.79377E-01 -0.87207E-01 -0.87147E-01 -0.75011E-01 -0.49965E-01 -0.16752E-01
  0.16299E-01  0.42024E-01  0.57583E-01  0.63865E-01  0.63069E-01  0.57224E-01
 -0.19086E-02 -0.22787E-02 -0.25350E-02 -0.27422E-02 -0.29523E-02 -0.30464E-02
 -0.28255E-02 -0.21935E-02 -0.11935E-02  0.10021E-04  0.10739E-02  0.15327E-02
  0.10721E-02 -0.33254E-03 -0.26442E-02 -0.59450E-02 -0.10219E-01 -0.15224E-01
 -0.20958E-01 -0.28064E-01 -0.37263E-01 -0.48389E-01 -0.60442E-01 -0.72318E-01
 -0.82239E-01 -0.85958E-01 -0.77050E-01 -0.51362E-01 -0.12078E-01  0.30449E-01
  0.64896E-01  0.85386E-01  0.92597E-01  0.90267E-01  0.81777E-01  0.69327E-01
 -0.22703E-02 -0.25340E-02 -0.27422E-02 -0.29940E-02 -0.32094E-02 -0.31897E-02
 -0.28281E-02 -0.21228E-02 -0.10838E-02  0.14857E-03  0.11294E-02  0.12998E-02
  0.38461E-03 -0.15631E-02 -0.44398E-02 -0.81484E-02 -0.12477E-01 -0.17368E-01
 -0.23344E-01 -0.31140E-01 -0.40791E-01 -0.51699E-01 -0.63647E-01 -0.76234E-01
 -0.85748E-01 -0.83522E-01 -0.60522E-01 -0.15917E-01  0.39150E-01  0.87775E-01
  0.11807E+00  0.12855E+00  0.12480E+00  0.11306E+00  0.96958E-01  0.78123E-01
 -0.25172E-02 -0.27149E-02 -0.29523E-02 -0.32094E-02 -0.33238E-02 -0.32062E-02
 -0.28391E-02 -0.20845E-02 -0.80949E-03  0.68021E-03  0.16090E-02  0.13285E-02
 -0.21895E-03 -0.27216E-02 -0.59017E-02 -0.95611E-02 -0.13623E-01 -0.18428E-01
 -0.24617E-01 -0.32378E-01 -0.41430E-01 -0.52264E-01 -0.66051E-01 -0.80800E-01
 -0.87194E-01 -0.71410E-01 -0.26079E-01  0.40344E-01  0.10656E+00  0.15234E+00
  0.17043E+00  0.16659E+00  0.15096E+00  0.13042E+00  0.10741E+00  0.82269E-01
 -0.26581E-02 -0.28327E-02 -0.30464E-02 -0.31897E-02 -0.32062E-02 -0.31111E-02
 -0.27010E-02 -0.15796E-02  0.22563E-03  0.18829E-02  0.23518E-02  0.12918E-02
 -0.87400E-03 -0.36206E-02 -0.66864E-02 -0.99722E-02 -0.13604E-01 -0.18027E-01
 -0.23556E-01 -0.30143E-01 -0.38489E-01 -0.50729E-01 -0.67174E-01 -0.80332E-01
 -0.74241E-01 -0.34725E-01  0.36407E-01  0.11793E+00  0.18212E+00  0.21277E+00
  0.21207E+00  0.19302E+00  0.16736E+00  0.14005E+00  0.11108E+00  0.79525E-01
 -0.26847E-02 -0.27670E-02 -0.28254E-02 -0.28281E-02 -0.28391E-02 -0.27010E-02
 -0.18788E-02 -0.72270E-04  0.20594E-02  0.32397E-02  0.27518E-02  0.94367E-03
 -0.14649E-02 -0.40969E-02 -0.68080E-02 -0.94482E-02 -0.12098E-01 -0.15114E-01
 -0.18772E-01 -0.23714E-01 -0.32018E-01 -0.45592E-01 -0.60366E-01 -0.62217E-01
 -0.33240E-01  0.32930E-01  0.12080E+00  0.20017E+00  0.24592E+00  0.25276E+00
  0.23304E+00  0.20317E+00  0.17251E+00  0.14180E+00  0.10812E+00  0.69803E-01
 -0.24876E-02 -0.23455E-02 -0.21935E-02 -0.21228E-02 -0.20845E-02 -0.15796E-02
 -0.72272E-04  0.21190E-02  0.37603E-02  0.38362E-02  0.24525E-02  0.35681E-03
 -0.20054E-02 -0.44724E-02 -0.65942E-02 -0.78317E-02 -0.82653E-02 -0.85628E-02
 -0.95909E-02 -0.12891E-01 -0.20562E-01 -0.31569E-01 -0.36429E-01 -0.18369E-01
  0.34765E-01  0.11659E+00  0.20124E+00  0.25921E+00  0.27655E+00  0.26066E+00
  0.22990E+00  0.19868E+00  0.17030E+00  0.13988E+00  0.10183E+00  0.55164E-01
 -0.18949E-02 -0.14810E-02 -0.11935E-02 -0.10838E-02 -0.80950E-03  0.22563E-03
  0.20594E-02  0.37603E-02  0.42397E-02  0.33216E-02  0.15964E-02 -0.55278E-03
 -0.30589E-02 -0.52843E-02 -0.59048E-02 -0.41817E-02 -0.85954E-03  0.24955E-02
  0.43234E-02  0.30667E-02 -0.15840E-02 -0.48034E-02  0.54743E-02  0.42422E-01
  0.10777E+00  0.18479E+00  0.24632E+00  0.27273E+00  0.26407E+00  0.23653E+00
  0.20819E+00  0.18655E+00  0.16645E+00  0.13723E+00  0.92497E-01  0.34900E-01
 -0.78820E-03 -0.24569E-03  0.10023E-04  0.14856E-03  0.68020E-03  0.18829E-02
  0.32397E-02  0.38362E-02  0.33216E-02  0.20385E-02  0.18776E-03 -0.23934E-02
 -0.51363E-02 -0.60666E-02 -0.31904E-02  0.34305E-02  0.11564E-01  0.18599E-01
  0.22849E-01  0.23862E-01  0.23817E-01  0.29751E-01  0.52002E-01  0.96291E-01
  0.15525E+00  0.20920E+00  0.23827E+00  0.23615E+00  0.21363E+00  0.18925E+00
  0.17516E+00  0.16903E+00  0.15713E+00  0.12563E+00  0.71377E-01  0.37348E-02
  0.73757E-03  0.10709E-02  0.10739E-02  0.11294E-02  0.16090E-02  0.23518E-02
  0.27518E-02  0.24525E-02  0.15964E-02  0.18776E-03 -0.22123E-02 -0.53719E-02
 -0.71268E-02 -0.42874E-02  0.45187E-02  0.17196E-01  0.29680E-01  0.38751E-01
  0.43431E-01  0.45100E-01  0.47931E-01  0.58684E-01  0.83103E-01  0.11978E+00
  0.15745E+00  0.18054E+00  0.17995E+00  0.16020E+00  0.13668E+00  0.12450E+00
  0.12708E+00  0.13289E+00  0.12344E+00  0.86999E-01  0.27285E-01 -0.40092E-01
  0.22471E-02  0.19775E-02  0.15327E-02  0.12998E-02  0.13285E-02  0.12918E-02
  0.94366E-03  0.35681E-03 -0.55278E-03 -0.23934E-02 -0.53719E-02 -0.76864E-02
 -0.55870E-02  0.38815E-02  0.19827E-01  0.37476E-01  0.51347E-01  0.58574E-01
  0.59910E-01  0.58885E-01  0.60454E-01  0.68963E-01  0.85032E-01  0.10323E+00
  0.11371E+00  0.10816E+00  0.86415E-01  0.58269E-01  0.38171E-01  0.35383E-01
  0.46297E-01  0.55495E-01  0.46223E-01  0.12690E-01 -0.36178E-01 -0.84593E-01
  0.30886E-02  0.20215E-02  0.10721E-02  0.38460E-03 -0.21896E-03 -0.87401E-03
 -0.14649E-02 -0.20054E-02 -0.30589E-02 -0.51363E-02 -0.71268E-02 -0.55870E-02
  0.33849E-02  0.20621E-01  0.42008E-01  0.60488E-01  0.70464E-01  0.70957E-01
  0.65382E-01  0.58860E-01  0.55239E-01  0.55195E-01  0.55764E-01  0.51371E-01
  0.36384E-01  0.85557E-02 -0.28189E-01 -0.63877E-01 -0.86936E-01 -0.91355E-01
 -0.81472E-01 -0.69563E-01 -0.67105E-01 -0.76865E-01 -0.92634E-01 -0.10601E+00
  0.28096E-02  0.10764E-02 -0.33254E-03 -0.15631E-02 -0.27216E-02 -0.36207E-02
 -0.40969E-02 -0.44724E-02 -0.52843E-02 -0.60666E-02 -0.42874E-02  0.38815E-02
  0.20621E-01  0.43476E-01  0.65388E-01  0.78577E-01  0.79409E-01  0.70228E-01
  0.56773E-01  0.43700E-01  0.31873E-01  0.18870E-01  0.11538E-02 -0.24384E-01
 -0.59863E-01 -0.10547E+00 -0.15746E+00 -0.20690E+00 -0.24200E+00 -0.25368E+00
 -0.24075E+00 -0.21021E+00 -0.17266E+00 -0.13678E+00 -0.10680E+00 -0.83503E-01
  0.14390E-02 -0.73519E-03 -0.26442E-02 -0.44398E-02 -0.59018E-02 -0.66864E-02
 -0.68080E-02 -0.65942E-02 -0.59048E-02 -0.31904E-02  0.45186E-02  0.19827E-01
  0.42008E-01  0.65388E-01  0.81516E-01  0.84311E-01  0.73946E-01  0.55817E-01
  0.35599E-01  0.15103E-01 -0.76797E-02 -0.35609E-01 -0.70345E-01 -0.11300E+00
 -0.16538E+00 -0.22862E+00 -0.29915E+00 -0.36548E+00 -0.41002E+00 -0.41640E+00
 -0.37835E+00 -0.30403E+00 -0.21273E+00 -0.12567E+00 -0.57103E-01 -0.10974E-01
 -0.76732E-03 -0.34129E-02 -0.59450E-02 -0.81484E-02 -0.95611E-02 -0.99722E-02
 -0.94482E-02 -0.78318E-02 -0.41818E-02  0.34305E-02  0.17196E-01  0.37476E-01
  0.60488E-01  0.78577E-01  0.84311E-01  0.75424E-01  0.55752E-01  0.31108E-01
  0.43748E-02 -0.25503E-01 -0.60780E-01 -0.10250E+00 -0.15110E+00 -0.20839E+00
 -0.27744E+00 -0.35863E+00 -0.44420E+00 -0.51551E+00 -0.54731E+00 -0.51921E+00
 -0.42843E+00 -0.29458E+00 -0.15121E+00 -0.29212E-01  0.55914E-01  0.10508E+00
 -0.37971E-02 -0.71456E-02 -0.10219E-01 -0.12477E-01 -0.13623E-01 -0.13604E-01
 -0.12098E-01 -0.82653E-02 -0.85955E-03  0.11563E-01  0.29680E-01  0.51347E-01
  0.70464E-01  0.79409E-01  0.73946E-01  0.55752E-01  0.29716E-01 -0.83483E-03
 -0.35847E-01 -0.76496E-01 -0.12323E+00 -0.17642E+00 -0.23790E+00 -0.31054E+00
 -0.39525E+00 -0.48669E+00 -0.56941E+00 -0.61761E+00 -0.60304E+00 -0.51049E+00
 -0.35135E+00 -0.16241E+00  0.12077E-01  0.14192E+00  0.21995E+00  0.25512E+00
 -0.78976E-02 -0.11959E-01 -0.15224E-01 -0.17368E-01 -0.18428E-01 -0.18027E-01
 -0.15114E-01 -0.85628E-02  0.24954E-02  0.18599E-01  0.38751E-01  0.58574E-01
  0.70957E-01  0.70228E-01  0.55817E-01  0.31108E-01 -0.83483E-03 -0.39254E-01
 -0.84073E-01 -0.13464E+00 -0.19125E+00 -0.25643E+00 -0.33289E+00 -0.41998E+00
 -0.51166E+00 -0.59519E+00 -0.64872E+00 -0.64276E+00 -0.55248E+00 -0.37707E+00
 -0.14934E+00  0.77481E-01  0.25741E+00  0.37109E+00  0.42404E+00  0.43172E+00
 -0.13175E-01 -0.17638E-01 -0.20958E-01 -0.23344E-01 -0.24617E-01 -0.23556E-01
 -0.18772E-01 -0.95909E-02  0.43233E-02  0.22849E-01  0.43431E-01  0.59910E-01
  0.65382E-01  0.56773E-01  0.35599E-01  0.43748E-02 -0.35847E-01 -0.84073E-01
 -0.13825E+00 -0.19783E+00 -0.26600E+00 -0.34639E+00 -0.43742E+00 -0.53127E+00
 -0.61634E+00 -0.67534E+00 -0.68009E+00 -0.59660E+00 -0.40773E+00 -0.13637E+00
  0.15684E+00  0.40514E+00  0.56979E+00  0.64898E+00  0.66176E+00  0.62885E+00
 -0.19512E-01 -0.24248E-01 -0.28064E-01 -0.31140E-01 -0.32378E-01 -0.30143E-01
 -0.23714E-01 -0.12891E-01  0.30667E-02  0.23862E-01  0.45100E-01  0.58885E-01
  0.58860E-01  0.43700E-01  0.15103E-01 -0.25503E-01 -0.76496E-01 -0.13464E+00
 -0.19783E+00 -0.26883E+00 -0.35240E+00 -0.44783E+00 -0.54717E+00 -0.64071E+00
 -0.71672E+00 -0.74922E+00 -0.69215E+00 -0.50231E+00 -0.18091E+00  0.20768E+00
  0.56605E+00  0.81922E+00  0.94683E+00  0.97157E+00  0.92751E+00  0.84102E+00
 -0.26999E-01 -0.32436E-01 -0.37263E-01 -0.40791E-01 -0.41430E-01 -0.38489E-01
 -0.32018E-01 -0.20562E-01 -0.15839E-02  0.23817E-01  0.47931E-01  0.60454E-01
  0.55239E-01  0.31873E-01 -0.76797E-02 -0.60780E-01 -0.12323E+00 -0.19125E+00
 -0.26600E+00 -0.35240E+00 -0.45123E+00 -0.55627E+00 -0.66203E+00 -0.76572E+00
 -0.84807E+00 -0.85115E+00 -0.69425E+00 -0.33545E+00  0.17337E+00  0.69942E+00
  0.11067E+01  0.13300E+01  0.13862E+01  0.13309E+01  0.12133E+01  0.10631E+01
 -0.36156E-01 -0.42786E-01 -0.48389E-01 -0.51699E-01 -0.52264E-01 -0.50729E-01
 -0.45592E-01 -0.31569E-01 -0.48034E-02  0.29751E-01  0.58684E-01  0.68963E-01
  0.55195E-01  0.18870E-01 -0.35609E-01 -0.10250E+00 -0.17642E+00 -0.25643E+00
 -0.34639E+00 -0.44783E+00 -0.55627E+00 -0.67056E+00 -0.79948E+00 -0.93880E+00
 -0.10289E+01 -0.95034E+00 -0.59614E+00  0.26672E-01  0.76564E+00  0.14060E+01
  0.17994E+01  0.19285E+01  0.18689E+01  0.17102E+01  0.15084E+01  0.12886E+01
 -0.47430E-01 -0.54973E-01 -0.60442E-01 -0.63647E-01 -0.66051E-01 -0.67174E-01
 -0.60366E-01 -0.36429E-01  0.54743E-02  0.52002E-01  0.83103E-01  0.85032E-01
  0.55764E-01  0.11538E-02 -0.70345E-01 -0.15110E+00 -0.23790E+00 -0.33289E+00
 -0.43742E+00 -0.54717E+00 -0.66203E+00 -0.79948E+00 -0.97573E+00 -0.11475E+01
 -0.11751E+01 -0.88189E+00 -0.19489E+00  0.75552E+00  0.16867E+01  0.23354E+01
  0.26036E+01  0.25642E+01  0.23575E+01  0.20890E+01  0.18025E+01  0.15084E+01
 -0.60535E-01 -0.67752E-01 -0.72318E-01 -0.76234E-01 -0.80800E-01 -0.80332E-01
 -0.62217E-01 -0.18369E-01  0.42423E-01  0.96291E-01  0.11978E+00  0.10323E+00
  0.51371E-01 -0.24384E-01 -0.11300E+00 -0.20839E+00 -0.31054E+00 -0.41998E+00
 -0.53127E+00 -0.64071E+00 -0.76572E+00 -0.93880E+00 -0.11475E+01 -0.12649E+01
 -0.10701E+01 -0.39635E+00  0.70045E+00  0.19190E+01  0.28838E+01  0.33720E+01
  0.34062E+01  0.31640E+01  0.28196E+01  0.24573E+01  0.20890E+01  0.17102E+01
 -0.74262E-01 -0.79377E-01 -0.82239E-01 -0.85748E-01 -0.87194E-01 -0.74241E-01
 -0.33240E-01  0.34765E-01  0.10777E+00  0.15525E+00  0.15745E+00  0.11371E+00
  0.36384E-01 -0.59863E-01 -0.16538E+00 -0.27744E+00 -0.39525E+00 -0.51166E+00
 -0.61634E+00 -0.71672E+00 -0.84807E+00 -0.10289E+01 -0.11751E+01 -0.10701E+01
 -0.47768E+00  0.65323E+00  0.20744E+01  0.33502E+01  0.41231E+01  0.43114E+01
  0.40859E+01  0.36854E+01  0.32550E+01  0.28196E+01  0.23575E+01  0.18689E+01
 -0.86447E-01 -0.87207E-01 -0.85958E-01 -0.83522E-01 -0.71410E-01 -0.34725E-01
  0.32930E-01  0.11659E+00  0.18479E+00  0.20920E+00  0.18054E+00  0.10816E+00
  0.85557E-02 -0.10547E+00 -0.22862E+00 -0.35863E+00 -0.48669E+00 -0.59519E+00
 -0.67534E+00 -0.74922E+00 -0.85115E+00 -0.95034E+00 -0.88189E+00 -0.39635E+00
  0.65323E+00  0.21295E+01  0.36225E+01  0.46858E+01  0.51076E+01  0.49917E+01
  0.46040E+01  0.41516E+01  0.36854E+01  0.31640E+01  0.25642E+01  0.19285E+01
 -0.93774E-01 -0.87147E-01 -0.77050E-01 -0.60522E-01 -0.26079E-01  0.36407E-01
  0.12080E+00  0.20124E+00  0.24632E+00  0.23827E+00  0.17995E+00  0.86415E-01
 -0.28189E-01 -0.15746E+00 -0.29915E+00 -0.44420E+00 -0.56941E+00 -0.64872E+00
 -0.68009E+00 -0.69215E+00 -0.69425E+00 -0.59614E+00 -0.19489E+00  0.70045E+00
  0.20744E+01  0.36225E+01  0.48963E+01  0.55812E+01  0.56732E+01  0.54067E+01
  0.50236E+01  0.46040E+01  0.40859E+01  0.34062E+01  0.26036E+01  0.17994E+01
 -0.92207E-01 -0.75011E-01 -0.51362E-01 -0.15917E-01  0.40344E-01  0.11793E+00
  0.20017E+00  0.25921E+00  0.27273E+00  0.23615E+00  0.16020E+00  0.58269E-01
 -0.63877E-01 -0.20690E+00 -0.36548E+00 -0.51551E+00 -0.61761E+00 -0.64276E+00
 -0.59660E+00 -0.50231E+00 -0.33545E+00  0.26672E-01  0.75552E+00  0.19190E+01
  0.33502E+01  0.46858E+01  0.55812E+01  0.59286E+01  0.58829E+01  0.56765E+01
  0.54067E+01  0.49917E+01  0.43114E+01  0.33720E+01  0.23354E+01  0.14060E+01
 -0.79013E-01 -0.49965E-01 -0.12078E-01  0.39150E-01  0.10656E+00  0.18212E+00
  0.24592E+00  0.27655E+00  0.26407E+00  0.21363E+00  0.13668E+00  0.38171E-01
 -0.86936E-01 -0.24200E+00 -0.41002E+00 -0.54731E+00 -0.60304E+00 -0.55248E+00
 -0.40773E+00 -0.18091E+00  0.17337E+00  0.76564E+00  0.16867E+01  0.28838E+01
  0.41231E+01  0.51076E+01  0.56732E+01  0.58829E+01  0.59207E+01  0.58829E+01
  0.56732E+01  0.51076E+01  0.41231E+01  0.28838E+01  0.16867E+01  0.76564E+00
 -0.55258E-01 -0.16752E-01  0.30449E-01  0.87775E-01  0.15234E+00  0.21277E+00
  0.25276E+00  0.26066E+00  0.23653E+00  0.18925E+00  0.12450E+00  0.35383E-01
 -0.91355E-01 -0.25368E+00 -0.41640E+00 -0.51921E+00 -0.51049E+00 -0.37707E+00
 -0.13637E+00  0.20768E+00  0.69942E+00  0.14060E+01  0.23354E+01  0.33720E+01
  0.43114E+01  0.49917E+01  0.54067E+01  0.56765E+01  0.58829E+01  0.59286E+01
  0.55812E+01  0.46858E+01  0.33502E+01  0.19190E+01  0.75552E+00  0.26672E-01
 -0.26209E-01  0.16299E-01  0.64896E-01  0.11807E+00  0.17043E+00  0.21207E+00
  0.23304E+00  0.22990E+00  0.20819E+00  0.17516E+00  0.12708E+00  0.46297E-01
 -0.81472E-01 -0.24075E+00 -0.37835E+00 -0.42843E+00 -0.35135E+00 -0.14934E+00
  0.15684E+00  0.56605E+00  0.11067E+01  0.17994E+01  0.26036E+01  0.34062E+01
  0.40859E+01  0.46040E+01  0.50236E+01  0.54067E+01  0.56732E+01  0.55812E+01
  0.48963E+01  0.36225E+01  0.20744E+01  0.70045E+00 -0.19489E+00 -0.59614E+00
  0.13054E-02  0.42024E-01  0.85386E-01  0.12855E+00  0.16659E+00  0.19302E+00
  0.20317E+00  0.19868E+00  0.18655E+00  0.16903E+00  0.13289E+00  0.55495E-01
 -0.69563E-01 -0.21021E+00 -0.30403E+00 -0.29458E+00 -0.16241E+00  0.77481E-01
  0.40514E+00  0.81922E+00  0.13300E+01  0.19285E+01  0.25642E+01  0.31640E+01
  0.36854E+01  0.41516E+01  0.46040E+01  0.49917E+01  0.51076E+01  0.46858E+01
  0.36225E+01  0.21295E+01  0.65323E+00 -0.39635E+00 -0.88189E+00 -0.95034E+00
  0.22387E-01  0.57583E-01  0.92597E-01  0.12480E+00  0.15096E+00  0.16736E+00
  0.17251E+00  0.17030E+00  0.16645E+00  0.15713E+00  0.12344E+00  0.46223E-01
 -0.67105E-01 -0.17266E+00 -0.21273E+00 -0.15121E+00  0.12077E-01  0.25741E+00
  0.56979E+00  0.94683E+00  0.13862E+01  0.18689E+01  0.23575E+01  0.28196E+01
  0.32550E+01  0.36854E+01  0.40859E+01  0.43114E+01  0.41231E+01  0.33502E+01
  0.20744E+01  0.65323E+00 -0.47768E+00 -0.10701E+01 -0.11751E+01 -0.10289E+01
  0.35505E-01  0.63865E-01  0.90267E-01  0.11306E+00  0.13042E+00  0.14005E+00
  0.14180E+00  0.13988E+00  0.13723E+00  0.12563E+00  0.86999E-01  0.12690E-01
 -0.76864E-01 -0.13678E+00 -0.12567E+00 -0.29212E-01  0.14192E+00  0.37109E+00
  0.64898E+00  0.97157E+00  0.13309E+01  0.17102E+01  0.20890E+01  0.24573E+01
  0.28196E+01  0.31640E+01  0.34062E+01  0.33720E+01  0.28838E+01  0.19190E+01
  0.70045E+00 -0.39635E+00 -0.10701E+01 -0.12649E+01 -0.11475E+01 -0.93880E+00
  0.41490E-01  0.63069E-01  0.81777E-01  0.96958E-01  0.10741E+00  0.11108E+00
  0.10812E+00  0.10183E+00  0.92497E-01  0.71377E-01  0.27285E-01 -0.36178E-01
 -0.92634E-01 -0.10680E+00 -0.57103E-01  0.55914E-01  0.21995E+00  0.42404E+00
  0.66176E+00  0.92751E+00  0.12133E+01  0.15084E+01  0.18025E+01  0.20890E+01
  0.23575E+01  0.25642E+01  0.26036E+01  0.23354E+01  0.16867E+01  0.75552E+00
 -0.19489E+00 -0.88189E+00 -0.11751E+01 -0.11475E+01 -0.97573E+00 -0.79948E+00
  0.41913E-01  0.57224E-01  0.69327E-01  0.78123E-01  0.82269E-01  0.79525E-01
  0.69803E-01  0.55164E-01  0.34900E-01  0.37348E-02 -0.40092E-01 -0.84593E-01
 -0.10601E+00 -0.83503E-01 -0.10974E-01  0.10508E+00  0.25512E+00  0.43172E+00
  0.62885E+00  0.84102E+00  0.10631E+01  0.12886E+01  0.15084E+01  0.17102E+01
  0.18689E+01  0.19285E+01  0.17994E+01  0.14060E+01  0.76564E+00  0.26672E-01
 -0.59614E+00 -0.95034E+00 -0.10289E+01 -0.93880E+00 -0.79948E+00 -0.67056E+00
 -0.12266E-02 -0.15663E-02 -0.19589E-02 -0.23214E-02 -0.25875E-02 -0.27606E-02
 -0.28201E-02 -0.26450E-02 -0.20514E-02 -0.91102E-03  0.67898E-03  0.22608E-02
  0.31513E-02  0.28810E-02  0.14839E-02 -0.77396E-03 -0.38773E-02 -0.80717E-02
 -0.13457E-01 -0.19921E-01 -0.27585E-01 -0.37012E-01 -0.48676E-01 -0.62307E-01
 -0.76708E-01 -0.89683E-01 -0.97745E-01 -0.96556E-01 -0.83106E-01 -0.58442E-01
 -0.28127E-01  0.59664E-03  0.22543E-01  0.36133E-01  0.42301E-01  0.42735E-01
 -0.15663E-02 -0.19617E-02 -0.23246E-02 -0.25964E-02 -0.28081E-02 -0.29562E-02
 -0.29089E-02 -0.24889E-02 -0.16060E-02 -0.33105E-03  0.10369E-02  0.19856E-02
  0.20449E-02  0.10861E-02 -0.76314E-03 -0.35011E-02 -0.73152E-02 -0.12223E-01
 -0.18010E-01 -0.24774E-01 -0.33206E-01 -0.43912E-01 -0.56567E-01 -0.69955E-01
 -0.82357E-01 -0.91041E-01 -0.91591E-01 -0.79411E-01 -0.53481E-01 -0.18788E-01
  0.15805E-01  0.42672E-01  0.58828E-01  0.65289E-01  0.64447E-01  0.58450E-01
 -0.19589E-02 -0.23246E-02 -0.25944E-02 -0.28307E-02 -0.30723E-02 -0.31890E-02
 -0.29793E-02 -0.23469E-02 -0.13289E-02 -0.87082E-04  0.10229E-02  0.15137E-02
  0.10574E-02 -0.37147E-03 -0.27328E-02 -0.61049E-02 -0.10462E-01 -0.15561E-01
 -0.21424E-01 -0.28743E-01 -0.38261E-01 -0.49817E-01 -0.62461E-01 -0.75194E-01
 -0.86230E-01 -0.90988E-01 -0.82439E-01 -0.55963E-01 -0.14852E-01  0.29863E-01
  0.66076E-01  0.87520E-01  0.94975E-01  0.92508E-01  0.83748E-01  0.70987E-01
 -0.23214E-02 -0.25964E-02 -0.28307E-02 -0.31131E-02 -0.33550E-02 -0.33594E-02
 -0.30215E-02 -0.23277E-02 -0.12690E-02  0.15271E-04  0.10551E-02  0.12604E-02
  0.34166E-03 -0.16448E-02 -0.45854E-02 -0.83702E-02 -0.12781E-01 -0.17781E-01
 -0.23934E-01 -0.32003E-01 -0.42034E-01 -0.53504E-01 -0.66383E-01 -0.80390E-01
 -0.91527E-01 -0.90334E-01 -0.66916E-01 -0.20221E-01  0.37894E-01  0.89334E-01
  0.12135E+00  0.13235E+00  0.12837E+00  0.11614E+00  0.99548E-01  0.80231E-01
 -0.25875E-02 -0.28080E-02 -0.30723E-02 -0.33550E-02 -0.35004E-02 -0.34273E-02
 -0.31052E-02 -0.23614E-02 -0.10405E-02  0.53305E-03  0.15361E-02  0.12839E-02
 -0.28617E-03 -0.28468E-02 -0.61001E-02 -0.98357E-02 -0.13988E-01 -0.18935E-01
 -0.25346E-01 -0.33419E-01 -0.42954E-01 -0.54680E-01 -0.70038E-01 -0.86907E-01
 -0.95126E-01 -0.79633E-01 -0.32319E-01  0.37884E-01  0.10819E+00  0.15688E+00
  0.17610E+00  0.17204E+00  0.15562E+00  0.13428E+00  0.11057E+00  0.84770E-01
 -0.27606E-02 -0.29562E-02 -0.31890E-02 -0.33594E-02 -0.34273E-02 -0.34015E-02
 -0.30369E-02 -0.18923E-02  0.50345E-05  0.17712E-02  0.23063E-02  0.12468E-02
 -0.97021E-03 -0.37932E-02 -0.69395E-02 -0.10309E-01 -0.14051E-01 -0.18641E-01
 -0.24404E-01 -0.31351E-01 -0.40412E-01 -0.54088E-01 -0.72789E-01 -0.88349E-01
 -0.83397E-01 -0.42480E-01  0.32645E-01  0.11931E+00  0.18778E+00  0.22054E+00
  0.21988E+00  0.19975E+00  0.17288E+00  0.14460E+00  0.11483E+00  0.82422E-01
 -0.28201E-02 -0.29089E-02 -0.29793E-02 -0.30215E-02 -0.31052E-02 -0.30369E-02
 -0.22234E-02 -0.33950E-03  0.19158E-02  0.31943E-02  0.27345E-02  0.88508E-03
 -0.16089E-02 -0.43437E-02 -0.71571E-02 -0.98991E-02 -0.12667E-01 -0.15831E-01
 -0.19701E-01 -0.25089E-01 -0.34440E-01 -0.49947E-01 -0.67194E-01 -0.70806E-01
 -0.41296E-01  0.28393E-01  0.12180E+00  0.20652E+00  0.25552E+00  0.26297E+00
  0.24212E+00  0.21071E+00  0.17887E+00  0.14736E+00  0.11285E+00  0.73377E-01
 -0.26450E-02 -0.24889E-02 -0.23469E-02 -0.23277E-02 -0.23614E-02 -0.18923E-02
 -0.33951E-03  0.19630E-02  0.37157E-02  0.38433E-02  0.24329E-02  0.24279E-03
 -0.22617E-02 -0.48893E-02 -0.71538E-02 -0.84933E-02 -0.89881E-02 -0.93330E-02
 -0.10510E-01 -0.14350E-01 -0.23307E-01 -0.36323E-01 -0.43064E-01 -0.25254E-01
  0.30414E-01  0.11728E+00  0.20764E+00  0.26974E+00  0.28848E+00  0.27176E+00
  0.23942E+00  0.20707E+00  0.17823E+00  0.14742E+00  0.10837E+00  0.59889E-01
 -0.20514E-02 -0.16060E-02 -0.13289E-02 -0.12690E-02 -0.10405E-02  0.50290E-05
  0.19158E-02  0.37157E-02  0.42567E-02  0.33278E-02  0.15071E-02 -0.82565E-03
 -0.35810E-02 -0.60528E-02 -0.68270E-02 -0.51116E-02 -0.16673E-02  0.18385E-02
  0.36231E-02  0.18077E-02 -0.40832E-02 -0.88129E-02  0.80445E-03  0.39188E-01
  0.10840E+00  0.19057E+00  0.25650E+00  0.28499E+00  0.27607E+00  0.24726E+00
  0.21814E+00  0.19676E+00  0.17728E+00  0.14789E+00  0.10147E+00  0.40851E-01
 -0.91101E-03 -0.33104E-03 -0.87081E-04  0.15268E-04  0.53304E-03  0.17711E-02
  0.31943E-02  0.38433E-02  0.33278E-02  0.19589E-02 -0.97077E-04 -0.30118E-02
 -0.61427E-02 -0.73575E-02 -0.45113E-02  0.23706E-02  0.10946E-01  0.18380E-01
  0.22697E-01  0.23228E-01  0.22274E-01  0.27537E-01  0.50365E-01  0.97117E-01
  0.15998E+00  0.21782E+00  0.24920E+00  0.24736E+00  0.22404E+00  0.19932E+00
  0.18628E+00  0.18210E+00  0.17153E+00  0.13935E+00  0.82101E-01  0.10002E-01
  0.67898E-03  0.10369E-02  0.10229E-02  0.10551E-02  0.15361E-02  0.23063E-02
  0.27345E-02  0.24329E-02  0.15070E-02 -0.97079E-04 -0.28696E-02 -0.65373E-02
 -0.87467E-02 -0.60505E-02  0.30715E-02  0.16440E-01  0.29711E-01  0.39334E-01
  0.44099E-01  0.45388E-01  0.47734E-01  0.58562E-01  0.84226E-01  0.12333E+00
  0.16381E+00  0.18889E+00  0.18880E+00  0.16857E+00  0.14492E+00  0.13413E+00
  0.13954E+00  0.14821E+00  0.13980E+00  0.10150E+00  0.37486E-01 -0.35179E-01
  0.22608E-02  0.19856E-02  0.15137E-02  0.12604E-02  0.12839E-02  0.12468E-02
  0.88507E-03  0.24279E-03 -0.82565E-03 -0.30118E-02 -0.65373E-02 -0.94385E-02
 -0.76451E-02  0.20811E-02  0.18862E-01  0.37616E-01  0.52426E-01  0.60112E-01
  0.61389E-01  0.60029E-01  0.61418E-01  0.70332E-01  0.87548E-01  0.10731E+00
  0.11905E+00  0.11386E+00  0.91663E-01  0.63160E-01  0.43949E-01  0.43716E-01
  0.58014E-01  0.69680E-01  0.60427E-01  0.24146E-01 -0.29227E-01 -0.82368E-01
  0.31513E-02  0.20449E-02  0.10574E-02  0.34165E-03 -0.28618E-03 -0.97022E-03
 -0.16089E-02 -0.22617E-02 -0.35810E-02 -0.61427E-02 -0.87467E-02 -0.76451E-02
  0.14416E-02  0.19505E-01  0.42190E-01  0.61913E-01  0.72622E-01  0.73218E-01
  0.67336E-01  0.60456E-01  0.56725E-01  0.56944E-01  0.58036E-01  0.54093E-01
  0.39077E-01  0.10602E-01 -0.27015E-01 -0.62987E-01 -0.85053E-01 -0.87258E-01
 -0.74891E-01 -0.61545E-01 -0.59534E-01 -0.71472E-01 -0.90238E-01 -0.10643E+00
  0.28810E-02  0.10861E-02 -0.37148E-03 -0.16448E-02 -0.28468E-02 -0.37932E-02
 -0.43437E-02 -0.48893E-02 -0.60528E-02 -0.73575E-02 -0.60505E-02  0.20811E-02
  0.19505E-01  0.43667E-01  0.67005E-01  0.81155E-01  0.82217E-01  0.72698E-01
  0.58715E-01  0.45203E-01  0.33106E-01  0.19938E-01  0.20219E-02 -0.23955E-01
 -0.60322E-01 -0.10730E+00 -0.16083E+00 -0.21144E+00 -0.24681E+00 -0.25780E+00
 -0.24358E+00 -0.21178E+00 -0.17349E+00 -0.13751E+00 -0.10787E+00 -0.85104E-01
  0.14839E-02 -0.76314E-03 -0.27328E-02 -0.45854E-02 -0.61001E-02 -0.69395E-02
 -0.71571E-02 -0.71538E-02 -0.68270E-02 -0.45113E-02  0.30715E-02  0.18862E-01
  0.42190E-01  0.67005E-01  0.84248E-01  0.87426E-01  0.76750E-01  0.57968E-01
  0.37082E-01  0.16003E-01 -0.73352E-02 -0.35869E-01 -0.71349E-01 -0.11507E+00
 -0.16910E+00 -0.23472E+00 -0.30817E+00 -0.37738E+00 -0.42395E+00 -0.43080E+00
 -0.39137E+00 -0.31424E+00 -0.21956E+00 -0.12951E+00 -0.58928E-01 -0.11792E-01
 -0.77397E-03 -0.35011E-02 -0.61049E-02 -0.83702E-02 -0.98357E-02 -0.10309E-01
 -0.98992E-02 -0.84933E-02 -0.51116E-02  0.23706E-02  0.16440E-01  0.37616E-01
  0.61913E-01  0.81155E-01  0.87426E-01  0.78349E-01  0.58018E-01  0.32577E-01
  0.50682E-02 -0.25580E-01 -0.61677E-01 -0.10432E+00 -0.15410E+00 -0.21314E+00
 -0.28484E+00 -0.36976E+00 -0.45980E+00 -0.53541E+00 -0.56994E+00 -0.54174E+00
 -0.44768E+00 -0.30828E+00 -0.15886E+00 -0.31997E-01  0.56105E-01  0.10658E+00
 -0.38773E-02 -0.73152E-02 -0.10462E-01 -0.12781E-01 -0.13988E-01 -0.14051E-01
 -0.12667E-01 -0.89881E-02 -0.16673E-02  0.10946E-01  0.29711E-01  0.52426E-01
  0.72622E-01  0.82217E-01  0.76750E-01  0.58018E-01  0.31183E-01 -0.24376E-03
 -0.36156E-01 -0.77740E-01 -0.12549E+00 -0.17995E+00 -0.24322E+00 -0.31849E+00
 -0.40693E+00 -0.50317E+00 -0.59116E+00 -0.64370E+00 -0.63070E+00 -0.53565E+00
 -0.37026E+00 -0.17327E+00  0.85711E-02  0.14342E+00  0.22392E+00  0.25982E+00
 -0.80717E-02 -0.12223E-01 -0.15561E-01 -0.17781E-01 -0.18935E-01 -0.18641E-01
 -0.15831E-01 -0.93330E-02  0.18385E-02  0.18380E-01  0.39334E-01  0.60112E-01
  0.73218E-01  0.72698E-01  0.57968E-01  0.32577E-01 -0.24376E-03 -0.39640E-01
 -0.85476E-01 -0.13713E+00 -0.19506E+00 -0.26209E+00 -0.34115E+00 -0.43171E+00
 -0.52784E+00 -0.61661E+00 -0.67525E+00 -0.67235E+00 -0.58094E+00 -0.39952E+00
 -0.16247E+00  0.73933E-01  0.26103E+00  0.37855E+00  0.43269E+00  0.44014E+00
 -0.13457E-01 -0.18010E-01 -0.21424E-01 -0.23934E-01 -0.25346E-01 -0.24404E-01
 -0.19701E-01 -0.10510E-01  0.36231E-02  0.22697E-01  0.44099E-01  0.61389E-01
  0.67336E-01  0.58715E-01  0.37082E-01  0.50682E-02 -0.36156E-01 -0.85476E-01
 -0.14080E+00 -0.20176E+00 -0.27185E+00 -0.35487E+00 -0.44924E+00 -0.54723E+00
 -0.63746E+00 -0.70237E+00 -0.71200E+00 -0.62947E+00 -0.43545E+00 -0.15348E+00
  0.15236E+00  0.41122E+00  0.58208E+00  0.66342E+00  0.67587E+00  0.64156E+00
 -0.19921E-01 -0.24774E-01 -0.28743E-01 -0.32003E-01 -0.33419E-01 -0.31351E-01
 -0.25089E-01 -0.14350E-01  0.18077E-02  0.23228E-01  0.45388E-01  0.60029E-01
  0.60456E-01  0.45203E-01  0.16003E-01 -0.25580E-01 -0.77740E-01 -0.13713E+00
 -0.20176E+00 -0.27473E+00 -0.36101E+00 -0.45981E+00 -0.56332E+00 -0.66252E+00
 -0.74615E+00 -0.78678E+00 -0.73446E+00 -0.54165E+00 -0.20830E+00  0.19773E+00
  0.57288E+00  0.83734E+00  0.96964E+00  0.99434E+00  0.94805E+00  0.85870E+00
 -0.27585E-01 -0.33206E-01 -0.38261E-01 -0.42034E-01 -0.42954E-01 -0.40412E-01
 -0.34440E-01 -0.23307E-01 -0.40832E-02  0.22274E-01  0.47734E-01  0.61418E-01
  0.56725E-01  0.33106E-01 -0.73352E-02 -0.61677E-01 -0.12549E+00 -0.19506E+00
 -0.27185E+00 -0.36101E+00 -0.46328E+00 -0.57270E+00 -0.68497E+00 -0.79881E+00
 -0.89423E+00 -0.90842E+00 -0.75339E+00 -0.38258E+00  0.14985E+00  0.70266E+00
  0.11307E+01  0.13645E+01  0.14223E+01  0.13636E+01  0.12412E+01  0.10863E+01
 -0.37012E-01 -0.43912E-01 -0.49817E-01 -0.53504E-01 -0.54680E-01 -0.54088E-01
 -0.49947E-01 -0.36323E-01 -0.88128E-02  0.27537E-01  0.58562E-01  0.70332E-01
  0.56944E-01  0.19938E-01 -0.35869E-01 -0.10432E+00 -0.17995E+00 -0.26209E+00
 -0.35487E+00 -0.45981E+00 -0.57270E+00 -0.69404E+00 -0.83533E+00 -0.99296E+00
 -0.11023E+01 -0.10337E+01 -0.67049E+00 -0.18671E-01  0.75970E+00  0.14354E+01
  0.18500E+01  0.19846E+01  0.19206E+01  0.17539E+01  0.15445E+01  0.13179E+01
 -0.48676E-01 -0.56567E-01 -0.62461E-01 -0.66383E-01 -0.70038E-01 -0.72789E-01
 -0.67194E-01 -0.43064E-01  0.80449E-03  0.50365E-01  0.84226E-01  0.87548E-01
  0.58036E-01  0.20219E-02 -0.71349E-01 -0.15410E+00 -0.24322E+00 -0.34115E+00
 -0.44924E+00 -0.56332E+00 -0.68497E+00 -0.83533E+00 -0.10332E+01 -0.12315E+01
 -0.12787E+01 -0.98331E+00 -0.26547E+00  0.73647E+00  0.17209E+01  0.24066E+01
  0.26884E+01  0.26445E+01  0.24254E+01  0.21442E+01  0.18473E+01  0.15445E+01
 -0.62307E-01 -0.69955E-01 -0.75194E-01 -0.80390E-01 -0.86907E-01 -0.88349E-01
 -0.70806E-01 -0.25254E-01  0.39188E-01  0.97117E-01  0.12333E+00  0.10731E+00
  0.54093E-01 -0.23955E-01 -0.11507E+00 -0.21314E+00 -0.31849E+00 -0.43171E+00
 -0.54723E+00 -0.66252E+00 -0.79881E+00 -0.99296E+00 -0.12315E+01 -0.13764E+01
 -0.11885E+01 -0.48731E+00  0.66853E+00  0.19575E+01  0.29785E+01  0.34933E+01
  0.35258E+01  0.32668E+01  0.29032E+01  0.25251E+01  0.21442E+01  0.17539E+01
 -0.76708E-01 -0.82357E-01 -0.86230E-01 -0.91527E-01 -0.95126E-01 -0.83397E-01
 -0.41296E-01  0.30414E-01  0.10840E+00  0.15998E+00  0.16381E+00  0.11905E+00
  0.39077E-01 -0.60322E-01 -0.16910E+00 -0.28484E+00 -0.40693E+00 -0.52784E+00
 -0.63746E+00 -0.74615E+00 -0.89423E+00 -0.11023E+01 -0.12787E+01 -0.11885E+01
 -0.57647E+00  0.61338E+00  0.21162E+01  0.34667E+01  0.42828E+01  0.44775E+01
  0.42337E+01  0.38079E+01  0.33556E+01  0.29032E+01  0.24254E+01  0.19206E+01
 -0.89683E-01 -0.91041E-01 -0.90988E-01 -0.90334E-01 -0.79633E-01 -0.42480E-01
  0.28393E-01  0.11728E+00  0.19057E+00  0.21782E+00  0.18889E+00  0.11386E+00
  0.10602E-01 -0.10730E+00 -0.23472E+00 -0.36976E+00 -0.50317E+00 -0.61661E+00
 -0.70237E+00 -0.78678E+00 -0.90842E+00 -0.10337E+01 -0.98331E+00 -0.48731E+00