       #
       # Generated by the Wannier90 code http://www.wannier.org
       # On 16May2012 at 16:37:13 
       #
CRYSTAL
PRIMVEC
   1.2305000   2.1312885   0.0000000
  -1.2305000   2.1312885   0.0000000
   0.0000000   0.0000000   7.1042951
CONVVEC
   1.2305000   2.1312885   0.0000000
  -1.2305000   2.1312885   0.0000000
   0.0000000   0.0000000   7.1042951
PRIMCOORD
     2  1
C       0.0000000   1.4208590   0.0000000
C       0.0000000   2.8417180   0.0000000


BEGIN_BLOCK_DATAGRID_3D
3D_field
BEGIN_DATAGRID_3D_UNKNOWN
    36    36   108
    0.000000   -4.499387   -7.235856
   2.3926389   4.1441721   0.0000000
  -2.3926389   4.1441721   0.0000000
   0.0000000   0.0000000  14.0770291
  0.87259E-03  0.10866E-02  0.12966E-02  0.14750E-02  0.16194E-02  0.17490E-02
  0.18856E-02  0.20283E-02  0.21392E-02  0.21587E-02  0.20424E-02  0.17896E-02
  0.14420E-02  0.10626E-02  0.71968E-03  0.48025E-03  0.40121E-03  0.51166E-03
  0.80152E-03  0.12296E-02  0.17443E-02  0.23001E-02  0.28640E-02  0.34129E-02
  0.39165E-02  0.42961E-02  0.43888E-02  0.39763E-02  0.29052E-02  0.12230E-02
 -0.80106E-03 -0.28074E-02 -0.45190E-02 -0.58080E-02 -0.66368E-02 -0.69836E-02
  0.10866E-02  0.13320E-02  0.15569E-02  0.17651E-02  0.19820E-02  0.22410E-02
  0.25576E-02  0.28952E-02  0.31529E-02  0.32059E-02  0.29798E-02  0.25014E-02
  0.18844E-02  0.12706E-02  0.77836E-03  0.48273E-03  0.41465E-03  0.56417E-03
  0.89012E-03  0.13406E-02  0.18720E-02  0.24517E-02  0.30475E-02  0.36112E-02
  0.40548E-02  0.42195E-02  0.38822E-02  0.28490E-02  0.11028E-02 -0.11241E-02
 -0.34480E-02 -0.55282E-02 -0.71810E-02 -0.83393E-02 -0.89610E-02 -0.90063E-02
  0.12966E-02  0.15569E-02  0.18139E-02  0.21013E-02  0.24634E-02  0.29356E-02
  0.35037E-02  0.40589E-02  0.44076E-02  0.43638E-02  0.38679E-02  0.30333E-02
  0.20833E-02  0.12375E-02  0.63378E-03  0.31780E-03  0.27252E-03  0.45121E-03
  0.80381E-03  0.12929E-02  0.18917E-02  0.25649E-02  0.32512E-02  0.38469E-02
  0.41829E-02  0.40132E-02  0.30796E-02  0.12721E-02 -0.12308E-02 -0.39995E-02
 -0.65746E-02 -0.86733E-02 -0.10207E-01 -0.11159E-01 -0.11498E-01 -0.11187E-01
  0.14750E-02  0.17651E-02  0.21013E-02  0.25404E-02  0.31398E-02  0.39223E-02
  0.48082E-02  0.55720E-02  0.59066E-02  0.55913E-02  0.46435E-02  0.33250E-02
  0.19947E-02  0.93048E-03  0.24669E-03 -0.73990E-04 -0.99957E-04  0.10964E-03
  0.52314E-03  0.11216E-02  0.18706E-02  0.26997E-02  0.34954E-02  0.40830E-02
  0.41961E-02  0.35017E-02  0.17542E-02 -0.98673E-03 -0.42830E-02 -0.75180E-02
 -0.10220E-01 -0.12222E-01 -0.13556E-01 -0.14267E-01 -0.14330E-01 -0.13664E-01
  0.16194E-02  0.19820E-02  0.24634E-02  0.31398E-02  0.40743E-02  0.52466E-02
  0.64592E-02  0.73283E-02  0.74429E-02  0.66162E-02  0.50341E-02  0.31615E-02
  0.14790E-02  0.26156E-03 -0.45713E-03 -0.76895E-03 -0.76223E-03 -0.47282E-03
  0.88727E-04  0.88926E-03  0.18503E-02  0.28525E-02  0.37291E-02  0.42178E-02
  0.39323E-02  0.24744E-02 -0.29746E-03 -0.40466E-02 -0.80458E-02 -0.11565E-01
 -0.14230E-01 -0.16062E-01 -0.17226E-01 -0.17792E-01 -0.17664E-01 -0.16614E-01
  0.17490E-02  0.22410E-02  0.29356E-02  0.39223E-02  0.52466E-02  0.67950E-02
  0.82002E-02  0.89179E-02  0.85081E-02  0.69409E-02  0.46582E-02  0.23185E-02
  0.43164E-03 -0.82800E-03 -0.15366E-02 -0.18186E-02 -0.17262E-02 -0.12592E-02
 -0.44331E-03  0.63075E-03  0.18287E-02  0.29923E-02  0.38918E-02  0.41428E-02
  0.32360E-02  0.79079E-03 -0.30961E-02 -0.77426E-02 -0.12201E-01 -0.15784E-01
 -0.18343E-01 -0.20112E-01 -0.21325E-01 -0.21954E-01 -0.21692E-01 -0.20113E-01
  0.18856E-02  0.25576E-02  0.35037E-02  0.48082E-02  0.64592E-02  0.82002E-02
  0.94852E-02  0.96865E-02  0.84837E-02  0.61258E-02  0.33108E-02  0.76420E-03
 -0.11269E-02 -0.23507E-02 -0.30435E-02 -0.32722E-02 -0.30089E-02 -0.22430E-02
 -0.10672E-02  0.34470E-03  0.18055E-02  0.31113E-02  0.39367E-02  0.37630E-02
  0.20310E-02 -0.14777E-02 -0.63311E-02 -0.11557E-01 -0.16175E-01 -0.19724E-01
 -0.22351E-01 -0.24435E-01 -0.26111E-01 -0.27050E-01 -0.26608E-01 -0.24208E-01
  0.20283E-02  0.28952E-02  0.40589E-02  0.55720E-02  0.73283E-02  0.89179E-02
  0.96865E-02  0.90807E-02  0.70495E-02  0.41388E-02  0.11538E-02 -0.13193E-02
 -0.31252E-02 -0.43675E-02 -0.51105E-02 -0.52641E-02 -0.47107E-02 -0.34818E-02
 -0.17938E-02  0.62689E-04  0.18254E-02  0.32197E-02  0.38240E-02  0.30592E-02
  0.45931E-03 -0.39211E-02 -0.93507E-02 -0.14762E-01 -0.19376E-01 -0.23095E-01
 -0.26331E-01 -0.29426E-01 -0.32136E-01 -0.33581E-01 -0.32722E-01 -0.29000E-01
  0.21392E-02  0.31530E-02  0.44076E-02  0.59066E-02  0.74429E-02  0.85081E-02
  0.84837E-02  0.70495E-02  0.44635E-02  0.14195E-02 -0.14132E-02 -0.37457E-02
 -0.56237E-02 -0.70987E-02 -0.79934E-02 -0.79891E-02 -0.69152E-02 -0.49421E-02
 -0.25084E-02 -0.85892E-04  0.19676E-02  0.33361E-02  0.35907E-02  0.22251E-02
 -0.10278E-02 -0.58573E-02 -0.11405E-01 -0.16756E-01 -0.21530E-01 -0.26042E-01
 -0.30829E-01 -0.35874E-01 -0.40162E-01 -0.42025E-01 -0.40119E-01 -0.34276E-01
  0.21587E-02  0.32059E-02  0.43638E-02  0.55913E-02  0.66162E-02  0.69409E-02
  0.61258E-02  0.41388E-02  0.14195E-02 -0.14390E-02 -0.40945E-02 -0.65519E-02
 -0.88741E-02 -0.10828E-01 -0.11848E-01 -0.11392E-01 -0.93698E-02 -0.62742E-02
 -0.28943E-02  0.97931E-04  0.23260E-02  0.35534E-02  0.34627E-02  0.16981E-02
 -0.18172E-02 -0.66406E-02 -0.11996E-01 -0.17341E-01 -0.22822E-01 -0.29115E-01
 -0.36585E-01 -0.44370E-01 -0.50269E-01 -0.51797E-01 -0.47738E-01 -0.38889E-01
  0.20424E-02  0.29798E-02  0.38679E-02  0.46435E-02  0.50341E-02  0.46582E-02
  0.33108E-02  0.11538E-02 -0.14132E-02 -0.40945E-02 -0.68972E-02 -0.99437E-02
 -0.13046E-01 -0.15478E-01 -0.16251E-01 -0.14765E-01 -0.11287E-01 -0.68349E-02
 -0.25662E-02  0.79375E-03  0.30297E-02  0.40953E-02  0.38138E-02  0.19566E-02
 -0.14362E-02 -0.59241E-02 -0.10997E-01 -0.16648E-01 -0.23592E-01 -0.32640E-01
 -0.43494E-01 -0.53939E-01 -0.60469E-01 -0.60248E-01 -0.52957E-01 -0.40902E-01
  0.17896E-02  0.25014E-02  0.30333E-02  0.33250E-02  0.31615E-02  0.23185E-02
  0.76420E-03 -0.13193E-02 -0.37457E-02 -0.65519E-02 -0.99437E-02 -0.13895E-01
 -0.17723E-01 -0.20142E-01 -0.19933E-01 -0.16799E-01 -0.11652E-01 -0.60584E-02
 -0.13053E-02  0.21037E-02  0.42421E-02  0.52292E-02  0.49649E-02  0.33038E-02
  0.34811E-03 -0.35796E-02 -0.83881E-02 -0.14688E-01 -0.23606E-01 -0.35662E-01
 -0.49393E-01 -0.61097E-01 -0.66486E-01 -0.63314E-01 -0.52855E-01 -0.38895E-01
  0.14420E-02  0.18844E-02  0.20833E-02  0.19947E-02  0.14790E-02  0.43164E-03
 -0.11269E-02 -0.31252E-02 -0.56237E-02 -0.88741E-02 -0.13046E-01 -0.17723E-01
 -0.21643E-01 -0.23156E-01 -0.21242E-01 -0.16290E-01 -0.98962E-02 -0.38477E-02
  0.83361E-03  0.40461E-02  0.60896E-02  0.71305E-02  0.71011E-02  0.59352E-02
  0.37377E-02  0.59497E-03 -0.38935E-02 -0.10838E-01 -0.21418E-01 -0.35428E-01
 -0.50150E-01 -0.60978E-01 -0.63909E-01 -0.58128E-01 -0.46469E-01 -0.33337E-01
  0.10626E-02  0.12706E-02  0.12375E-02  0.93048E-03  0.26156E-03 -0.82800E-03
 -0.23507E-02 -0.43675E-02 -0.70987E-02 -0.10828E-01 -0.15478E-01 -0.20142E-01
 -0.23156E-01 -0.22962E-01 -0.19193E-01 -0.13005E-01 -0.63089E-02 -0.60080E-03
  0.36186E-02  0.65763E-02  0.86287E-02  0.99238E-02  0.10439E-01  0.10153E-01
  0.90782E-02  0.70155E-02  0.31896E-02 -0.37051E-02 -0.14560E-01 -0.28406E-01
 -0.41847E-01 -0.50453E-01 -0.51436E-01 -0.45441E-01 -0.35892E-01 -0.26553E-01
  0.71968E-03  0.77836E-03  0.63378E-03  0.24669E-03 -0.45713E-03 -0.15366E-02
 -0.30435E-02 -0.51105E-02 -0.79934E-02 -0.11848E-01 -0.16251E-01 -0.19933E-01
 -0.21242E-01 -0.19193E-01 -0.14213E-01 -0.78627E-02 -0.17919E-02  0.31152E-02
  0.68155E-02  0.96561E-02  0.11955E-01  0.13852E-01  0.15341E-01  0.16352E-01
  0.16777E-01  0.16255E-01  0.13876E-01  0.83661E-02 -0.88920E-03 -0.12642E-01
 -0.23743E-01 -0.30800E-01 -0.32328E-01 -0.29538E-01 -0.25147E-01 -0.21432E-01
  0.48025E-03  0.48273E-03  0.31780E-03 -0.73990E-04 -0.76895E-03 -0.18186E-02
 -0.32722E-02 -0.52641E-02 -0.79891E-02 -0.11392E-01 -0.14765E-01 -0.16799E-01
 -0.16290E-01 -0.13005E-01 -0.78627E-02 -0.22613E-02  0.27678E-02  0.69015E-02
  0.10319E-01  0.13361E-01  0.16308E-01  0.19262E-01  0.22147E-01  0.24841E-01
  0.27237E-01  0.28973E-01  0.29080E-01  0.26214E-01  0.19670E-01  0.10344E-01
  0.52822E-03 -0.74767E-02 -0.12739E-01 -0.15886E-01 -0.18151E-01 -0.20324E-01
  0.40121E-03  0.41465E-03  0.27252E-03 -0.99958E-04 -0.76223E-03 -0.17262E-02
 -0.30089E-02 -0.47107E-02 -0.69152E-02 -0.93698E-02 -0.11287E-01 -0.11652E-01
 -0.98962E-02 -0.63089E-02 -0.17919E-02  0.27678E-02  0.69177E-02  0.10649E-01
  0.14207E-01  0.17910E-01  0.21971E-01  0.26393E-01  0.31059E-01  0.35930E-01
  0.40982E-01  0.45751E-01  0.48972E-01  0.48940E-01  0.44517E-01  0.35944E-01
  0.24732E-01  0.12755E-01  0.13726E-02 -0.88113E-02 -0.17612E-01 -0.24877E-01
  0.51166E-03  0.56417E-03  0.45121E-03  0.10964E-03 -0.47282E-03 -0.12592E-02
 -0.22430E-02 -0.34818E-02 -0.49421E-02 -0.62742E-02 -0.68349E-02 -0.60584E-02
 -0.38477E-02 -0.60080E-03  0.31152E-02  0.69015E-02  0.10649E-01  0.14492E-01
  0.18704E-01  0.23542E-01  0.29114E-01  0.35396E-01  0.42398E-01  0.50195E-01
  0.58610E-01  0.66725E-01  0.72717E-01  0.74341E-01  0.69890E-01  0.59073E-01
  0.43241E-01  0.24797E-01  0.61950E-02 -0.10781E-01 -0.25107E-01 -0.36250E-01
  0.80152E-03  0.89012E-03  0.80381E-03  0.52314E-03  0.88728E-04 -0.44331E-03
 -0.10672E-02 -0.17938E-02 -0.25084E-02 -0.28943E-02 -0.25662E-02 -0.13053E-02
  0.83361E-03  0.36186E-02  0.68155E-02  0.10319E-01  0.14207E-01  0.18704E-01
  0.24053E-01  0.30418E-01  0.37905E-01  0.46667E-01  0.56858E-01  0.68375E-01
  0.80528E-01  0.91765E-01  0.99597E-01  0.10099E+00  0.93501E-01  0.76740E-01
  0.52966E-01  0.26119E-01 -0.15156E-04 -0.22996E-01 -0.41643E-01 -0.55442E-01
  0.12296E-02  0.13406E-02  0.12929E-02  0.11216E-02  0.88926E-03  0.63075E-03
  0.34470E-03  0.62689E-04 -0.85892E-04  0.97931E-04  0.79375E-03  0.21037E-02
  0.40461E-02  0.65763E-02  0.96561E-02  0.13361E-01  0.17910E-01  0.23542E-01
  0.30418E-01  0.38716E-01  0.48771E-01  0.60933E-01  0.75218E-01  0.91096E-01
  0.10741E+00  0.12197E+00  0.13107E+00  0.12999E+00  0.11541E+00  0.87959E-01
  0.52482E-01  0.15403E-01 -0.18410E-01 -0.46677E-01 -0.68685E-01 -0.84185E-01
  0.17443E-02  0.18720E-02  0.18917E-02  0.18706E-02  0.18503E-02  0.18287E-02
  0.18055E-02  0.18254E-02  0.19676E-02  0.23260E-02  0.30297E-02  0.42421E-02
  0.60896E-02  0.86287E-02  0.11955E-01  0.16308E-01  0.21971E-01  0.29114E-01
  0.37905E-01  0.48771E-01  0.62306E-01  0.78806E-01  0.98046E-01  0.11945E+00
  0.14166E+00  0.16099E+00  0.17065E+00  0.16308E+00  0.13498E+00  0.90496E-01
  0.39143E-01 -0.98343E-02 -0.51439E-01 -0.84557E-01 -0.10938E+00 -0.12593E+00
  0.23001E-02  0.24517E-02  0.25649E-02  0.26997E-02  0.28525E-02  0.29923E-02
  0.31113E-02  0.32197E-02  0.33361E-02  0.35534E-02  0.40953E-02  0.52292E-02
  0.71305E-02  0.99238E-02  0.13852E-01  0.19262E-01  0.26393E-01  0.35396E-01
  0.46667E-01  0.60933E-01  0.78806E-01  0.10051E+00  0.12624E+00  0.15602E+00
  0.18734E+00  0.21232E+00  0.21868E+00  0.19641E+00  0.14552E+00  0.77187E-01
  0.68264E-02 -0.54621E-01 -0.10373E+00 -0.14141E+00 -0.16873E+00 -0.18551E+00
  0.28640E-02  0.30475E-02  0.32512E-02  0.34954E-02  0.37291E-02  0.38918E-02
  0.39367E-02  0.38240E-02  0.35907E-02  0.34627E-02  0.38138E-02  0.49649E-02
  0.71011E-02  0.10439E-01  0.15341E-01  0.22147E-01  0.31059E-01  0.42398E-01
  0.56858E-01  0.75218E-01  0.98046E-01  0.12624E+00  0.16138E+00  0.20329E+00
  0.24518E+00  0.27154E+00  0.26436E+00  0.21510E+00  0.13218E+00  0.36234E-01
 -0.52800E-01 -0.12519E+00 -0.18096E+00 -0.22313E+00 -0.25263E+00 -0.26813E+00
  0.34129E-02  0.36112E-02  0.38469E-02  0.40830E-02  0.42178E-02  0.41428E-02
  0.37630E-02  0.30592E-02  0.22251E-02  0.16981E-02  0.19566E-02  0.33038E-02
  0.59352E-02  0.10153E-01  0.16352E-01  0.24841E-01  0.35930E-01  0.50195E-01
  0.68375E-01  0.91096E-01  0.11945E+00  0.15602E+00  0.20329E+00  0.25782E+00
  0.30456E+00  0.31962E+00  0.28361E+00  0.19616E+00  0.77878E-01 -0.42679E-01
 -0.14571E+00 -0.22653E+00 -0.28934E+00 -0.33749E+00 -0.36929E+00 -0.38057E+00
  0.39165E-02  0.40548E-02  0.41829E-02  0.41961E-02  0.39323E-02  0.32360E-02
  0.20310E-02  0.45931E-03 -0.10278E-02 -0.18172E-02 -0.14362E-02  0.34811E-03
  0.37377E-02  0.90782E-02  0.16777E-01  0.27237E-01  0.40982E-01  0.58610E-01
  0.80528E-01  0.10741E+00  0.14166E+00  0.18734E+00  0.24518E+00  0.30456E+00
  0.34111E+00  0.32702E+00  0.24947E+00  0.12150E+00 -0.25410E-01 -0.16144E+00
 -0.27365E+00 -0.36485E+00 -0.44096E+00 -0.50038E+00 -0.53418E+00 -0.53418E+00
  0.42961E-02  0.42195E-02  0.40132E-02  0.35017E-02  0.24744E-02  0.79079E-03
 -0.14777E-02 -0.39211E-02 -0.58573E-02 -0.66406E-02 -0.59241E-02 -0.35796E-02
  0.59497E-03  0.70155E-02  0.16255E-01  0.28973E-01  0.45751E-01  0.66725E-01
  0.91765E-01  0.12197E+00  0.16099E+00  0.21232E+00  0.27154E+00  0.31962E+00
  0.32702E+00  0.27041E+00  0.15001E+00 -0.84112E-02 -0.17062E+00 -0.31547E+00
 -0.44215E+00 -0.55857E+00 -0.66373E+00 -0.74147E+00 -0.77060E+00 -0.74147E+00
  0.43888E-02  0.38822E-02  0.30796E-02  0.17542E-02 -0.29746E-03 -0.30961E-02
 -0.63311E-02 -0.93507E-02 -0.11405E-01 -0.11996E-01 -0.10997E-01 -0.83881E-02
 -0.38935E-02  0.31896E-02  0.13876E-01  0.29080E-01  0.48972E-01  0.72717E-01
  0.99597E-01  0.13107E+00  0.17065E+00  0.21868E+00  0.26436E+00  0.28361E+00
  0.24947E+00  0.15001E+00 -0.12706E-02 -0.17431E+00 -0.34448E+00 -0.50790E+00
 -0.67476E+00 -0.84666E+00 -0.99998E+00 -0.10930E+01 -0.10930E+01 -0.99998E+00
  0.39763E-02  0.28490E-02  0.12721E-02 -0.98673E-03 -0.40466E-02 -0.77426E-02
 -0.11557E-01 -0.14762E-01 -0.16756E-01 -0.17341E-01 -0.16648E-01 -0.14688E-01
 -0.10838E-01 -0.37051E-02  0.83661E-02  0.26214E-01  0.48940E-01  0.74341E-01
  0.10099E+00  0.12999E+00  0.16308E+00  0.19641E+00  0.21510E+00  0.19616E+00
  0.12150E+00 -0.84112E-02 -0.17431E+00 -0.35489E+00 -0.54628E+00 -0.76288E+00
 -0.10135E+01 -0.12726E+01 -0.14762E+01 -0.15542E+01 -0.14762E+01 -0.12726E+01
  0.29052E-02  0.11028E-02 -0.12308E-02 -0.42830E-02 -0.80458E-02 -0.12201E-01
 -0.16175E-01 -0.19376E-01 -0.21530E-01 -0.22822E-01 -0.23592E-01 -0.23606E-01
 -0.21418E-01 -0.14560E-01 -0.88920E-03  0.19670E-01  0.44517E-01  0.69890E-01
  0.93501E-01  0.11541E+00  0.13498E+00  0.14552E+00  0.13218E+00  0.77878E-01
 -0.25410E-01 -0.17062E+00 -0.34448E+00 -0.54628E+00 -0.79608E+00 -0.11152E+01
 -0.14875E+01 -0.18371E+01 -0.20532E+01 -0.20532E+01 -0.18371E+01 -0.14875E+01
  0.12230E-02 -0.11241E-02 -0.39995E-02 -0.75180E-02 -0.11565E-01 -0.15784E-01
 -0.19724E-01 -0.23095E-01 -0.26042E-01 -0.29115E-01 -0.32640E-01 -0.35662E-01
 -0.35428E-01 -0.28406E-01 -0.12642E-01  0.10344E-01  0.35944E-01  0.59073E-01
  0.76740E-01  0.87959E-01  0.90496E-01  0.77187E-01  0.36234E-01 -0.42679E-01
 -0.16144E+00 -0.31547E+00 -0.50790E+00 -0.76288E+00 -0.11152E+01 -0.15698E+01
 -0.20602E+01 -0.24507E+01 -0.26009E+01 -0.24507E+01 -0.20602E+01 -0.15698E+01
 -0.80106E-03 -0.34480E-02 -0.65746E-02 -0.10220E-01 -0.14230E-01 -0.18343E-01
 -0.22351E-01 -0.26331E-01 -0.30829E-01 -0.36585E-01 -0.43494E-01 -0.49393E-01
 -0.50150E-01 -0.41847E-01 -0.23743E-01  0.52822E-03  0.24732E-01  0.43241E-01
  0.52966E-01  0.52482E-01  0.39143E-01  0.68264E-02 -0.52800E-01 -0.14571E+00
 -0.27365E+00 -0.44215E+00 -0.67476E+00 -0.10135E+01 -0.14875E+01 -0.20602E+01
 -0.26036E+01 -0.29403E+01 -0.29403E+01 -0.26036E+01 -0.20602E+01 -0.14875E+01
 -0.28074E-02 -0.55282E-02 -0.86733E-02 -0.12222E-01 -0.16062E-01 -0.20112E-01
 -0.24435E-01 -0.29426E-01 -0.35874E-01 -0.44370E-01 -0.53939E-01 -0.61097E-01
 -0.60978E-01 -0.50453E-01 -0.30800E-01 -0.74767E-02  0.12755E-01  0.24797E-01
  0.26119E-01  0.15403E-01 -0.98343E-02 -0.54621E-01 -0.12519E+00 -0.22653E+00
 -0.36485E+00 -0.55857E+00 -0.84666E+00 -0.12726E+01 -0.18371E+01 -0.24507E+01
 -0.29403E+01 -0.31286E+01 -0.29403E+01 -0.24507E+01 -0.18371E+01 -0.12726E+01
 -0.45190E-02 -0.71810E-02 -0.10207E-01 -0.13556E-01 -0.17226E-01 -0.21325E-01
 -0.26111E-01 -0.32136E-01 -0.40162E-01 -0.50269E-01 -0.60469E-01 -0.66486E-01
 -0.63909E-01 -0.51436E-01 -0.32328E-01 -0.12739E-01  0.13726E-02  0.61950E-02
 -0.15154E-04 -0.18410E-01 -0.51439E-01 -0.10373E+00 -0.18096E+00 -0.28934E+00
 -0.44096E+00 -0.66373E+00 -0.99998E+00 -0.14762E+01 -0.20532E+01 -0.26009E+01
 -0.29403E+01 -0.29403E+01 -0.26009E+01 -0.20532E+01 -0.14762E+01 -0.99998E+00
 -0.58080E-02 -0.83393E-02 -0.11159E-01 -0.14267E-01 -0.17792E-01 -0.21954E-01
 -0.27050E-01 -0.33581E-01 -0.42025E-01 -0.51797E-01 -0.60248E-01 -0.63314E-01
 -0.58128E-01 -0.45441E-01 -0.29538E-01 -0.15886E-01 -0.88113E-02 -0.10781E-01
 -0.22996E-01 -0.46677E-01 -0.84557E-01 -0.14141E+00 -0.22313E+00 -0.33749E+00
 -0.50038E+00 -0.74147E+00 -0.10930E+01 -0.15542E+01 -0.20532E+01 -0.24507E+01
 -0.26036E+01 -0.24507E+01 -0.20532E+01 -0.15542E+01 -0.10930E+01 -0.74147E+00
 -0.66368E-02 -0.89610E-02 -0.11498E-01 -0.14330E-01 -0.17664E-01 -0.21692E-01
 -0.26608E-01 -0.32722E-01 -0.40119E-01 -0.47738E-01 -0.52957E-01 -0.52855E-01
 -0.46469E-01 -0.35892E-01 -0.25147E-01 -0.18151E-01 -0.17612E-01 -0.25107E-01
 -0.41643E-01 -0.68685E-01 -0.10938E+00 -0.16873E+00 -0.25263E+00 -0.36929E+00
 -0.53418E+00 -0.77060E+00 -0.10930E+01 -0.14762E+01 -0.18371E+01 -0.20602E+01
 -0.20602E+01 -0.18371E+01 -0.14762E+01 -0.10930E+01 -0.77060E+00 -0.53418E+00
 -0.69836E-02 -0.90063E-02 -0.11187E-01 -0.13664E-01 -0.16614E-01 -0.20113E-01
 -0.24208E-01 -0.29000E-01 -0.34276E-01 -0.38889E-01 -0.40902E-01 -0.38895E-01
 -0.33337E-01 -0.26553E-01 -0.21432E-01 -0.20324E-01 -0.24877E-01 -0.36250E-01
 -0.55442E-01 -0.84185E-01 -0.12593E+00 -0.18551E+00 -0.26813E+00 -0.38057E+00
 -0.53418E+00 -0.74147E+00 -0.99998E+00 -0.12726E+01 -0.14875E+01 -0.15698E+01
 -0.14875E+01 -0.12726E+01 -0.99998E+00 -0.74147E+00 -0.53418E+00 -0.38057E+00
  0.87230E-09  0.99614E-09  0.10507E-08  0.10304E-08  0.94174E-09  0.82043E-09
  0.69659E-09  0.53584E-09  0.26764E-09 -0.88251E-10 -0.36102E-09 -0.35751E-09
 -0.55828E-10  0.37140E-09  0.73183E-09  0.96982E-09  0.11401E-08  0.12836E-08
  0.13790E-08  0.13905E-08  0.13092E-08  0.11437E-08  0.91325E-09  0.65784E-09
  0.42356E-09  0.22031E-09  0.23550E-10 -0.16007E-09 -0.25435E-09 -0.17697E-09
  0.59780E-10  0.33680E-09  0.52211E-09  0.56512E-09  0.50227E-09  0.39583E-09
  0.10017E-08  0.10938E-08  0.11114E-08  0.10496E-08  0.92837E-09  0.79188E-09
  0.64690E-09  0.43011E-09  0.97909E-10 -0.25034E-09 -0.40371E-09 -0.23461E-09
  0.16755E-09  0.59004E-09  0.89786E-09  0.11048E-08  0.12726E-08  0.14073E-08
  0.14686E-08  0.14300E-08  0.12943E-08  0.10762E-08  0.80473E-09  0.52724E-09
  0.27819E-09  0.52841E-10 -0.15640E-09 -0.30021E-09 -0.28848E-09 -0.87330E-10
  0.21848E-09  0.48076E-09  0.60147E-09  0.58513E-09  0.49583E-09  0.38668E-09
  0.10598E-08  0.11149E-08  0.10919E-08  0.10039E-08  0.89341E-09  0.78573E-09
  0.62742E-09  0.33127E-09 -0.76828E-10 -0.39679E-09 -0.40556E-09 -0.74522E-10
  0.40305E-09  0.80423E-09  0.10562E-08  0.12200E-08  0.13550E-08  0.14496E-08
  0.14612E-08  0.13693E-08  0.11821E-08  0.92736E-09  0.64882E-09  0.38567E-09
  0.14230E-09 -0.96351E-10 -0.30183E-09 -0.38014E-09 -0.24942E-09  0.58239E-10
  0.39611E-09  0.61357E-09  0.66096E-09  0.59041E-09  0.47779E-09  0.35994E-09
  0.10371E-08  0.10522E-08  0.10040E-08  0.93616E-09  0.88616E-09  0.81137E-09
  0.59260E-09  0.17483E-09 -0.29477E-09 -0.53227E-09 -0.36295E-09  0.11435E-09
  0.62874E-09  0.98057E-09  0.11610E-08  0.12649E-08  0.13494E-08  0.13939E-08
  0.13532E-08  0.12101E-08  0.98703E-09  0.73094E-09  0.48362E-09  0.24936E-09
  0.17366E-11 -0.25420E-09 -0.43156E-09 -0.40824E-09 -0.14687E-09  0.24124E-09
  0.56929E-09  0.71416E-09  0.68374E-09  0.56523E-09  0.43178E-09  0.30269E-09
  0.94298E-09  0.92793E-09  0.89132E-09  0.88544E-09  0.89267E-09  0.78981E-09
  0.45153E-09 -0.73442E-10 -0.52108E-09 -0.60293E-09 -0.25687E-09  0.30425E-09
  0.78994E-09  0.10588E-08  0.11611E-08  0.12095E-08  0.12510E-08  0.12511E-08
  0.11615E-08  0.97911E-09  0.75001E-09  0.52641E-09  0.31846E-09  0.90706E-10
 -0.17822E-09 -0.42611E-09 -0.51770E-09 -0.35344E-09  0.22531E-10  0.43299E-09
  0.69555E-09  0.74528E-09  0.64393E-09  0.49237E-09  0.34811E-09  0.21511E-09
  0.81508E-09  0.78688E-09  0.78262E-09  0.82058E-09  0.81277E-09  0.61186E-09
  0.16717E-09 -0.36103E-09 -0.67861E-09 -0.58467E-09 -0.13578E-09  0.41074E-09
  0.81009E-09  0.99244E-09  0.10452E-08  0.10740E-08  0.10983E-08  0.10649E-08
  0.93332E-09  0.72919E-09  0.51508E-09  0.32178E-09  0.12071E-09 -0.12687E-09
 -0.39197E-09 -0.55925E-09 -0.50446E-09 -0.20687E-09  0.21084E-09  0.55992E-09
  0.71350E-09  0.67318E-09  0.52929E-09  0.37141E-09  0.23508E-09  0.11260E-09
  0.67489E-09  0.63152E-09  0.63113E-09  0.64109E-09  0.54882E-09  0.26126E-09
 -0.17999E-09 -0.58441E-09 -0.73151E-09 -0.53156E-09 -0.93127E-10  0.36198E-09
  0.66440E-09  0.79899E-09  0.85910E-09  0.91588E-09  0.94587E-09  0.88258E-09
  0.71213E-09  0.49255E-09  0.28374E-09  0.85758E-10 -0.13719E-09 -0.38041E-09
 -0.56351E-09 -0.57912E-09 -0.38097E-09 -0.32748E-10  0.32278E-09  0.54974E-09
  0.59517E-09  0.50139E-09  0.35502E-09  0.22182E-09  0.11749E-09  0.23183E-10
  0.47400E-09  0.39585E-09  0.35594E-09  0.29716E-09  0.14494E-09 -0.11887E-09
 -0.42822E-09 -0.66031E-09 -0.69803E-09 -0.50418E-09 -0.16152E-09  0.17692E-09
  0.40698E-09  0.54391E-09  0.66087E-09  0.77107E-09  0.80403E-09  0.69977E-09
  0.48786E-09  0.24977E-09  0.29015E-10 -0.18673E-09 -0.40088E-09 -0.56097E-09
 -0.59143E-09 -0.46063E-09 -0.20902E-09  0.74698E-10  0.29687E-09  0.39640E-09
  0.36824E-09  0.26203E-09  0.14881E-09  0.73886E-10  0.32269E-10 -0.13456E-10
  0.14219E-09  0.41264E-10 -0.21375E-10 -0.90679E-10 -0.18719E-09 -0.30725E-09
 -0.44247E-09 -0.56204E-09 -0.59710E-09 -0.49354E-09 -0.28389E-09 -0.64285E-10
  0.11216E-09  0.27734E-09  0.46127E-09  0.60561E-09  0.61149E-09  0.45708E-09
  0.22032E-09 -0.13878E-10 -0.22245E-09 -0.40708E-09 -0.53336E-09 -0.54706E-09
 -0.43811E-09 -0.25754E-09 -0.72601E-10  0.71949E-10  0.15062E-09  0.14822E-09
  0.76135E-10 -0.13793E-10 -0.57160E-10 -0.31215E-10  0.22858E-10  0.39545E-10
 -0.27722E-09 -0.32448E-09 -0.31958E-09 -0.28552E-09 -0.22582E-09 -0.17842E-09
 -0.20854E-09 -0.32178E-09 -0.43247E-09 -0.45535E-09 -0.39424E-09 -0.29985E-09
 -0.17544E-09  0.99921E-11  0.22194E-09  0.34575E-09  0.30154E-09  0.13038E-09
 -0.64958E-10 -0.22803E-09 -0.35764E-09 -0.43920E-09 -0.42993E-09 -0.32164E-09
 -0.17436E-09 -0.63508E-10 -0.16473E-10 -0.19674E-10 -0.64241E-10 -0.15009E-09
 -0.24688E-09 -0.28466E-09 -0.20907E-09 -0.44067E-10  0.11517E-09  0.18095E-09
 -0.58415E-09 -0.48834E-09 -0.33615E-09 -0.14284E-09  0.63772E-10  0.19293E-09
  0.15714E-09 -0.22075E-10 -0.23054E-09 -0.38179E-09 -0.46808E-09 -0.49171E-09
 -0.42033E-09 -0.25402E-09 -0.84859E-10 -0.24147E-10 -0.83512E-10 -0.17789E-09
 -0.23773E-09 -0.26480E-09 -0.27328E-09 -0.23697E-09 -0.13303E-09 -0.37410E-11
  0.70278E-10  0.50317E-10 -0.39348E-10 -0.16372E-09 -0.31071E-09 -0.45794E-09
 -0.53645E-09 -0.46560E-09 -0.23503E-09  0.60724E-10  0.28332E-09  0.35218E-09
 -0.57596E-09 -0.32753E-09 -0.44876E-10  0.25168E-09  0.50181E-09  0.59917E-09
  0.49062E-09  0.24011E-09 -0.39779E-10 -0.28520E-09 -0.47676E-09 -0.58260E-09
 -0.57391E-09 -0.48894E-09 -0.41536E-09 -0.39018E-09 -0.36334E-09 -0.28209E-09
 -0.16736E-09 -0.71856E-10  0.17999E-11  0.90943E-10  0.19334E-09  0.24763E-09
  0.20181E-09  0.65263E-10 -0.12087E-09 -0.33072E-09 -0.54053E-09 -0.68579E-09
 -0.67300E-09 -0.45678E-09 -0.10125E-09  0.24645E-09  0.45227E-09  0.47464E-09
 -0.24490E-09  0.66417E-10  0.38200E-09  0.67278E-09  0.86272E-09  0.87023E-09
  0.69468E-09  0.41963E-09  0.13003E-09 -0.13710E-09 -0.36330E-09 -0.52366E-09
 -0.61269E-09 -0.65336E-09 -0.64830E-09 -0.55420E-09 -0.34504E-09 -0.80864E-10
  0.13295E-09  0.25199E-09  0.31831E-09  0.37621E-09  0.40487E-09  0.35369E-09
  0.21091E-09  0.70900E-11 -0.22698E-09 -0.46608E-09 -0.65520E-09 -0.70619E-09
 -0.55722E-09 -0.23677E-09  0.13797E-09  0.42918E-09  0.55447E-09  0.51372E-09
  0.21775E-09  0.48724E-09  0.74963E-09  0.96300E-09  0.10541E-08  0.98335E-09
  0.79008E-09  0.55369E-09  0.32366E-09  0.10265E-09 -0.12277E-09 -0.35541E-09
 -0.57069E-09 -0.69927E-09 -0.64758E-09 -0.38247E-09 -0.47608E-13  0.32871E-09
  0.49962E-09  0.54280E-09  0.54375E-09  0.53256E-09  0.47495E-09  0.34273E-09
  0.15006E-09 -0.72827E-10 -0.29902E-09 -0.48422E-09 -0.55796E-09 -0.46585E-09
 -0.22150E-09  0.92528E-10  0.37290E-09  0.54478E-09  0.58085E-09  0.49286E-09
  0.61250E-09  0.80796E-09  0.99809E-09  0.11255E-08  0.11340E-08  0.10249E-08
  0.85931E-09  0.70050E-09  0.55837E-09  0.38684E-09  0.13217E-09 -0.19779E-09
 -0.49163E-09 -0.57884E-09 -0.36328E-09  0.67510E-10  0.49022E-09  0.72561E-09
  0.76450E-09  0.71460E-09  0.65699E-09  0.58557E-09  0.46358E-09  0.28720E-09
  0.82730E-10 -0.11898E-09 -0.27805E-09 -0.33869E-09 -0.26201E-09 -0.68205E-10
  0.17071E-09  0.38204E-09  0.52676E-09  0.59050E-09  0.56367E-09  0.44255E-09
  0.88448E-09  0.10406E-08  0.11792E-08  0.12391E-08  0.11921E-08  0.10709E-08
  0.94276E-09  0.84867E-09  0.75611E-09  0.57648E-09  0.25584E-09 -0.12682E-09
 -0.36646E-09 -0.28378E-09  0.10267E-09  0.57017E-09  0.87703E-09  0.94930E-09
  0.88214E-09  0.79162E-09  0.70616E-09  0.59223E-09  0.43060E-09  0.23837E-09
  0.47040E-10 -0.10348E-09 -0.16059E-09 -0.87681E-10  0.91280E-10  0.29686E-09
  0.45647E-09  0.55136E-09  0.59674E-09  0.59361E-09  0.51893E-09  0.35847E-09
  0.10860E-08  0.12352E-08  0.13340E-08  0.13385E-08  0.12495E-08  0.11151E-08
  0.99793E-09  0.91586E-09  0.80512E-09  0.57177E-09  0.21559E-09 -0.10280E-09
 -0.16491E-09  0.10311E-09  0.54269E-09  0.89844E-09  0.10334E-08  0.99697E-09
  0.90828E-09  0.82228E-09  0.71929E-09  0.57463E-09  0.39563E-09  0.20691E-09
  0.42052E-10 -0.47100E-10 -0.10717E-10  0.14650E-09  0.34892E-09  0.50719E-09
  0.58795E-09  0.61509E-09  0.61103E-09  0.55921E-09  0.42958E-09  0.22405E-09
  0.12516E-08  0.13871E-08  0.14402E-08  0.13932E-08  0.12624E-08  0.10990E-08
  0.95904E-09  0.84323E-09  0.67949E-09  0.40925E-09  0.10305E-09 -0.51827E-10
  0.79379E-10  0.43090E-09  0.78778E-09  0.98118E-09  0.10064E-08  0.95675E-09
  0.89386E-09  0.81071E-09  0.68681E-09  0.52763E-09  0.35066E-09  0.17476E-09
  0.39736E-10  0.59443E-11  0.10328E-09  0.28636E-09  0.46311E-09  0.57099E-09
  0.61206E-09  0.61363E-09  0.57513E-09  0.46886E-09  0.28433E-09  0.53254E-10
  0.13576E-08  0.14554E-08  0.14571E-08  0.13601E-08  0.11858E-08  0.98840E-09
  0.81795E-09  0.66096E-09  0.45544E-09  0.19733E-09  0.47528E-11  0.24541E-10
  0.27038E-09  0.59239E-09  0.82057E-09  0.90692E-09  0.91138E-09  0.88911E-09
  0.83760E-09  0.73923E-09  0.60284E-09  0.44731E-09  0.28025E-09  0.12060E-09
  0.22078E-10  0.39704E-10  0.16943E-09  0.34087E-09  0.47717E-09  0.55061E-09
  0.57438E-09  0.55560E-09  0.47584E-09  0.31948E-09  0.10658E-09 -0.11379E-09
  0.13720E-08  0.14192E-08  0.13693E-08  0.12258E-08  0.10200E-08  0.81053E-09
  0.62917E-09  0.44224E-09  0.21193E-09 -0.58518E-11 -0.76876E-10  0.70516E-10
  0.35187E-09  0.60564E-09  0.74432E-09  0.79452E-09  0.80874E-09  0.79207E-09
  0.72547E-09  0.61440E-09  0.48141E-09  0.33450E-09  0.17835E-09  0.49578E-10
  0.66141E-11  0.73084E-10  0.20782E-09  0.34119E-09  0.43115E-09  0.47567E-09
  0.48082E-09  0.43467E-09  0.31905E-09  0.13982E-09 -0.64736E-10 -0.24848E-09
  0.12895E-08  0.12838E-08  0.11852E-08  0.10113E-08  0.80862E-09  0.62202E-09
  0.44112E-09  0.21783E-09 -0.35484E-10 -0.20121E-09 -0.15819E-09  0.79351E-10
  0.36508E-09  0.56350E-09  0.65292E-09  0.68382E-09  0.68570E-09  0.64908E-09
  0.56919E-09  0.46117E-09  0.33554E-09  0.19539E-09  0.65573E-10 -0.42087E-11
  0.16698E-10  0.10540E-09  0.20750E-09  0.28508E-09  0.33274E-09  0.35443E-09
  0.34028E-09  0.27102E-09  0.14024E-09 -0.31261E-10 -0.20409E-09 -0.34369E-09
  0.11179E-08  0.10613E-08  0.92981E-09  0.76230E-09  0.60186E-09  0.44715E-09
  0.24448E-09 -0.29711E-10 -0.28399E-09 -0.36101E-09 -0.19481E-09  0.11007E-09
  0.37811E-09  0.51706E-09  0.55283E-09  0.54517E-09  0.51777E-09  0.46690E-09
  0.39107E-09  0.29204E-09  0.17284E-09  0.55017E-10 -0.19241E-10 -0.22691E-10
  0.27247E-10  0.88868E-10  0.13892E-09  0.18079E-09  0.21670E-09  0.22984E-09
  0.19718E-09  0.10998E-09 -0.20209E-10 -0.16717E-09 -0.29969E-09 -0.39288E-09
  0.87331E-09  0.77939E-09  0.64831E-09  0.52334E-09  0.40940E-09  0.25299E-09
  0.25396E-11 -0.29165E-09 -0.47086E-09 -0.40355E-09 -0.12367E-09  0.19343E-09
  0.38998E-09  0.43744E-09  0.40310E-09  0.35357E-09  0.31007E-09  0.26402E-09
  0.20027E-09  0.11214E-09  0.16489E-10 -0.49630E-10 -0.63856E-10 -0.44285E-10
 -0.23548E-10 -0.37462E-11  0.40107E-10  0.11123E-09  0.16928E-09  0.16764E-09
  0.97193E-10 -0.16042E-10 -0.14146E-09 -0.25759E-09 -0.34546E-09 -0.38695E-09
  0.59642E-09  0.48837E-09  0.38414E-09  0.29904E-09  0.19021E-09 -0.34801E-11
 -0.27057E-09 -0.48602E-09 -0.49914E-09 -0.28021E-09  0.37188E-10  0.27148E-09
  0.33829E-09  0.28080E-09  0.18984E-09  0.12306E-09  0.86097E-10  0.55136E-10
  0.77445E-11 -0.52301E-10 -0.96432E-10 -0.10754E-09 -0.10756E-09 -0.12610E-09
 -0.14321E-09 -0.96657E-10  0.35795E-10  0.18462E-09  0.24557E-09  0.17989E-09
  0.37380E-10 -0.10962E-09 -0.22603E-09 -0.30741E-09 -0.34706E-09 -0.33216E-09
  0.33624E-09  0.22550E-09  0.13955E-09  0.53218E-10 -0.88249E-10 -0.29277E-09
 -0.47455E-09 -0.50576E-09 -0.33503E-09 -0.51580E-10  0.18111E-09  0.25512E-09
  0.18207E-09  0.49698E-10 -0.59652E-10 -0.11380E-09 -0.12779E-09 -0.13445E-09
 -0.14918E-09 -0.15815E-09 -0.14951E-09 -0.14912E-09 -0.19369E-09 -0.25609E-09
 -0.23371E-09 -0.54075E-10  0.21461E-09  0.39911E-09  0.38054E-09  0.19563E-09
 -0.25813E-10 -0.19036E-09 -0.28567E-09 -0.32813E-09 -0.31608E-09 -0.24246E-09
  0.10305E-09 -0.16941E-10 -0.11000E-09 -0.22056E-09 -0.36583E-09 -0.48547E-09
 -0.48092E-09 -0.31267E-09 -0.55093E-10  0.15208E-09  0.20821E-09  0.11259E-09
 -0.58969E-10 -0.21749E-09 -0.30755E-09 -0.32267E-09 -0.29435E-09 -0.25840E-09
 -0.22383E-09 -0.18461E-09 -0.16247E-09 -0.20359E-09 -0.29987E-09 -0.33632E-09